
  ___ ___ ___ _ _ _  
 |   |   |_  | | | | 
 | | | | | . | | | | 
 |__ |  _|___|_____|  19.8.1
 |___|_|             

User:   hallborn@hebbe05-7
Date:   Thu Feb 27 11:06:13 2020
Arch:   x86_64
Pid:    26199
Python: 3.7.2
gpaw:   /apps/Hebbe7/software/MPI/intel/2019.1.144-GCC-8.2.0-2.31.1/impi/2018.4.274/GPAW/19.8.1-Python-3.7.2/lib/python3.7/site-packages/gpaw
_gpaw:  /apps/Hebbe7/software/MPI/intel/2019.1.144-GCC-8.2.0-2.31.1/impi/2018.4.274/GPAW/19.8.1-Python-3.7.2/bin/
        gpaw-python
ase:    /apps/Hebbe7/software/MPI/intel/2019.1.144-GCC-8.2.0-2.31.1/impi/2018.4.274/ASE/3.18.0-Python-3.7.2/lib/python3.7/site-packages/ase (version 3.18.0)
numpy:  /apps/Hebbe7/software/MPI/intel/2019.1.144-GCC-8.2.0-2.31.1/impi/2018.4.274/SciPy-bundle/2019.03/lib/python3.7/site-packages/numpy (version 1.16.2)
scipy:  /apps/Hebbe7/software/MPI/intel/2019.1.144-GCC-8.2.0-2.31.1/impi/2018.4.274/SciPy-bundle/2019.03/lib/python3.7/site-packages/scipy (version 1.2.1)
libxc:  4.3.4
units:  Angstrom and eV
cores:  10

Input parameters:
  basis: dzp
  charge: 1
  mode: lcao
  symmetry: {point_group: False}
  xc: PBE

System changes: positions, numbers, cell, pbc, initial_charges, initial_magmoms 

Initialize ...

O-setup:
  name: Oxygen
  id: 32ecd46bf208036f09c70b0ec9a88b78
  Z: 8
  valence: 6
  core: 2
  charge: 0.0
  file: /apps/Common/Core/GPAW-setups/0.9.20000/O.PBE.gz
  compensation charges: gauss, rc=0.21, lmax=2
  cutoffs: 1.17(filt), 0.83(core),
  valence states:
                energy  radius
    2s(2.00)   -23.961   0.688
    2p(4.00)    -9.029   0.598
    *s           3.251   0.688
    *p          18.182   0.598
    *d           0.000   0.619

  LCAO basis set for O:
    Name: dzp
    File: /apps/Common/Core/GPAW-setups/0.9.20000/O.dzp.basis.gz
    Number of radial functions: 5
    Number of spherical harmonics: 13
      l=0, rc=4.3438 Bohr: 2s-sz confined orbital
      l=1, rc=5.3906 Bohr: 2p-sz confined orbital
      l=0, rc=2.2969 Bohr: 2s-dz split-valence wave
      l=1, rc=2.8906 Bohr: 2p-dz split-valence wave
      l=2, rc=5.3906 Bohr: d-type Gaussian polarization

H-setup:
  name: Hydrogen
  id: d65de229564ff8ea4db303e23b6d1ecf
  Z: 1
  valence: 1
  core: 0
  charge: 0.0
  file: /apps/Common/Core/GPAW-setups/0.9.20000/H.PBE.gz
  compensation charges: gauss, rc=0.15, lmax=2
  cutoffs: 0.85(filt), 0.53(core),
  valence states:
                energy  radius
    1s(1.00)    -6.494   0.476
    *s          20.717   0.476
    *p           0.000   0.476

  LCAO basis set for H:
    Name: dzp
    File: /apps/Common/Core/GPAW-setups/0.9.20000/H.dzp.basis.gz
    Number of radial functions: 3
    Number of spherical harmonics: 5
      l=0, rc=6.4219 Bohr: 1s-sz confined orbital
      l=0, rc=3.6094 Bohr: 1s-dz split-valence wave
      l=1, rc=6.4219 Bohr: p-type Gaussian polarization

Na-setup:
  name: Sodium
  id: d7ecbc49209718622bcbe287195dca2a
  Z: 11
  valence: 7
  core: 4
  charge: 0.0
  file: /apps/Common/Core/GPAW-setups/0.9.20000/Na.PBE.gz
  compensation charges: gauss, rc=0.37, lmax=2
  cutoffs: 2.17(filt), 2.59(core),
  valence states:
                energy  radius
    3s(1.00)    -2.744   1.201
    2p(6.00)   -28.672   1.217
    3p(0.00)    -0.743   1.217
    *s          24.468   1.201
    *d           0.000   1.238

  LCAO basis set for Na:
    Name: dzp
    File: /apps/Common/Core/GPAW-setups/0.9.20000/Na.dzp.basis.gz
    Number of radial functions: 7
    Number of spherical harmonics: 17
      l=0, rc=11.4062 Bohr: 3s-sz confined orbital
      l=1, rc=3.6719 Bohr: 2p-sz confined orbital
      l=1, rc=15.9375 Bohr: 3p-sz confined orbital
      l=0, rc=6.9531 Bohr: 3s-dz split-valence wave
      l=1, rc=2.4219 Bohr: 2p-dz split-valence wave
      l=1, rc=10.0469 Bohr: 3p-dz split-valence wave
      l=1, rc=11.4062 Bohr: p-type Gaussian polarization

Reference energy: -53998.593513

Spin-paired calculation

Occupation numbers:
  Fermi-Dirac: width=0.1000 eV

Convergence criteria:
  Maximum total energy change: 0.0005 eV / electron
  Maximum integral of absolute density change: 0.0001 electrons
  Maximum integral of absolute eigenstate change: 4e-08 eV^2
  Maximum number of iterations: 333

Symmetries present (total): 1

  ( 1  0  0)
  ( 0  1  0)
  ( 0  0  1)

1 k-point (Gamma)
1 k-point in the irreducible part of the Brillouin zone
       k-points in crystal coordinates                weights
   0:     0.00000000    0.00000000    0.00000000          1/1

Wave functions: LCAO
  Diagonalizer: Serial LAPACK
  Atomic Correction: dense with blas
  Datatype: float
 

Eigensolver
   LCAO using direct dense diagonalizer 

Densities:
  Coarse grid: 44*44*44 grid
  Fine grid: 88*88*88 grid
  Total Charge: 1.000000 

Density mixing:
  Method: separate
  Backend: pulay
  Linear mixing parameter: 0.05
  Mixing with 5 old densities
  Damping of long wave oscillations: 50 

Hamiltonian:
  XC and Coulomb potentials evaluated on a 88*88*88 grid
  Using the PBE Exchange-Correlation functional
  Interpolation: tri-quintic (5. degree polynomial)
  Poisson solver: FastPoissonSolver using
    6*3+1=19 point O(h^6) finite-difference Laplacian stencil;
    FFT axes: [0, 1, 2];
    FST axes: [].
 

XC parameters: PBE with 2 nearest neighbor stencil

Memory estimate:
  Process memory now: 104.59 MiB
  Calculator: 18.64 MiB
    Density: 5.66 MiB
      Arrays: 1.73 MiB
      Localized functions: 3.27 MiB
      Mixer: 0.66 MiB
    Hamiltonian: 1.37 MiB
      Arrays: 1.13 MiB
      XC: 0.00 MiB
      Poisson: 0.00 MiB
      vbar: 0.24 MiB
    Wavefunctions: 11.62 MiB
      C [qnM]: 0.53 MiB
      S, T [2 x qmm]: 4.94 MiB
      P [aqMi]: 0.03 MiB
      BasisFunctions: 6.11 MiB
      Eigensolver: 0.00 MiB

Total number of cores used: 10
Domain decomposition: 5 x 2 x 1

Number of atoms: 73
Number of atomic orbitals: 569
Number of bands in calculation: 123
Bands to converge: occupied states only
Number of valence electrons: 198

... initialized

Initializing position-dependent things.

Density initialized from atomic densities
       .--------------O------.  
      /|                     |  
     / |    H O       H      |  
    /  |     HO            H |  
   /  H| O      H     HO     |  
  /    | HH      O   HHH     |  
 *     |     H H HO          |  
 |    H| O      H     H  O   |  
 |     |H   H H     H OHH    |  
 |   H OH      HO H  OH      |  
 |     |       H   H  O      |  
 |    H.OH--Na--O-----HHH----.  
 | O H/   O     H         O /   
 |   /     H  H         H  /    
 |  /      HO           H /     
 | /                     /      
 |/                 H O /       
 *---------------------*        

Positions:
   0 O      4.078484    4.985735    4.426314    ( 0.0000,  0.0000,  0.0000)
   1 O      4.984636    7.564862    4.524923    ( 0.0000,  0.0000,  0.0000)
   2 O      1.413016    5.061386    2.522780    ( 0.0000,  0.0000,  0.0000)
   3 O      5.206508    2.700926    4.927962    ( 0.0000,  0.0000,  0.0000)
   4 O      7.857956    2.394335    4.792242    ( 0.0000,  0.0000,  0.0000)
   5 O      5.459159    4.557185    7.483566    ( 0.0000,  0.0000,  0.0000)
   6 O      3.147860    7.860984    7.079951    ( 0.0000,  0.0000,  0.0000)
   7 O      6.558893    5.912448    3.306164    ( 0.0000,  0.0000,  0.0000)
   8 O      6.211885   -0.006270    8.759336    ( 0.0000,  0.0000,  0.0000)
   9 O      3.674369    6.172468    8.716113    ( 0.0000,  0.0000,  0.0000)
  10 O      3.387678    9.305635    3.686086    ( 0.0000,  0.0000,  0.0000)
  11 O      1.986028    4.065885    8.396545    ( 0.0000,  0.0000,  0.0000)
  12 O      8.248060    1.658199    0.313712    ( 0.0000,  0.0000,  0.0000)
  13 O      1.865004    5.299765    5.616662    ( 0.0000,  0.0000,  0.0000)
  14 O      4.061866    2.186050    1.635659    ( 0.0000,  0.0000,  0.0000)
  15 O      6.695638    7.547245    6.276302    ( 0.0000,  0.0000,  0.0000)
  16 O      0.261999    2.344431    2.643460    ( 0.0000,  0.0000,  0.0000)
  17 O      8.083030    3.915779    8.511291    ( 0.0000,  0.0000,  0.0000)
  18 O      4.216076    2.308570    7.580006    ( 0.0000,  0.0000,  0.0000)
  19 O      2.185879    9.838766    6.156969    ( 0.0000,  0.0000,  0.0000)
  20 O     -0.486127    6.074287    1.025602    ( 0.0000,  0.0000,  0.0000)
  21 O      4.674576    4.754260    1.993293    ( 0.0000,  0.0000,  0.0000)
  22 O      8.273996    4.854909    5.452818    ( 0.0000,  0.0000,  0.0000)
  23 O     -0.392657    9.539303    6.634328    ( 0.0000,  0.0000,  0.0000)
  24 H      3.261368    4.872443    5.050451    ( 0.0000,  0.0000,  0.0000)
  25 H      4.661826    4.113531    4.629646    ( 0.0000,  0.0000,  0.0000)
  26 H      4.317585    8.279632    4.125629    ( 0.0000,  0.0000,  0.0000)
  27 H      4.451800    6.685740    4.760031    ( 0.0000,  0.0000,  0.0000)
  28 H      0.734345    4.344472    2.644974    ( 0.0000,  0.0000,  0.0000)
  29 H      1.456424    5.435274    3.437157    ( 0.0000,  0.0000,  0.0000)
  30 H      6.210855    2.504879    4.889982    ( 0.0000,  0.0000,  0.0000)
  31 H      4.707634    2.339662    5.740594    ( 0.0000,  0.0000,  0.0000)
  32 H      8.329486    2.434216    3.875711    ( 0.0000,  0.0000,  0.0000)
  33 H      8.237924    1.790328    5.444304    ( 0.0000,  0.0000,  0.0000)
  34 H      5.476416    4.534281    6.486282    ( 0.0000,  0.0000,  0.0000)
  35 H      4.831901    5.285127    7.851447    ( 0.0000,  0.0000,  0.0000)
  36 H      3.908815    7.986217    6.432445    ( 0.0000,  0.0000,  0.0000)
  37 H      2.673067    8.709920    6.754114    ( 0.0000,  0.0000,  0.0000)
  38 H      6.077429    6.768973    3.519982    ( 0.0000,  0.0000,  0.0000)
  39 H      5.877410    5.385614    2.755578    ( 0.0000,  0.0000,  0.0000)
  40 H      6.417272   -0.602678    7.982856    ( 0.0000,  0.0000,  0.0000)
  41 H      6.345651   -0.537471    9.547907    ( 0.0000,  0.0000,  0.0000)
  42 H      3.254478    6.906212    8.198769    ( 0.0000,  0.0000,  0.0000)
  43 H      2.941172    5.505791    8.860773    ( 0.0000,  0.0000,  0.0000)
  44 H      3.748555    9.989517    2.995282    ( 0.0000,  0.0000,  0.0000)
  45 H      2.846944    9.771567    4.400711    ( 0.0000,  0.0000,  0.0000)
  46 H      2.404984    3.437646    7.724140    ( 0.0000,  0.0000,  0.0000)
  47 H      0.989482    4.020331    8.423657    ( 0.0000,  0.0000,  0.0000)
  48 H      7.710822    2.517269   -0.023985    ( 0.0000,  0.0000,  0.0000)
  49 H      7.563192    0.899787    0.310283    ( 0.0000,  0.0000,  0.0000)
  50 H      2.004426    5.730675    6.497001    ( 0.0000,  0.0000,  0.0000)
  51 H      0.874385    4.994906    5.605439    ( 0.0000,  0.0000,  0.0000)
  52 H      3.304533    2.401954    1.040444    ( 0.0000,  0.0000,  0.0000)
  53 H      4.359429    3.214648    1.734507    ( 0.0000,  0.0000,  0.0000)
  54 H      6.878448    6.595724    6.377815    ( 0.0000,  0.0000,  0.0000)
  55 H      5.965476    7.683266    5.532825    ( 0.0000,  0.0000,  0.0000)
  56 H      1.034900    1.718273    2.813388    ( 0.0000,  0.0000,  0.0000)
  57 H     -0.110501    1.901932    1.822396    ( 0.0000,  0.0000,  0.0000)
  58 H      7.622404    4.283340    7.708407    ( 0.0000,  0.0000,  0.0000)
  59 H      8.241434    4.673188    9.192312    ( 0.0000,  0.0000,  0.0000)
  60 H      4.921303    3.081393    7.680151    ( 0.0000,  0.0000,  0.0000)
  61 H      4.573314    1.664090    8.226329    ( 0.0000,  0.0000,  0.0000)
  62 H      1.251025    9.596714    6.500206    ( 0.0000,  0.0000,  0.0000)
  63 H      2.615352   10.477389    6.814938    ( 0.0000,  0.0000,  0.0000)
  64 H      0.345097    5.919628    1.546321    ( 0.0000,  0.0000,  0.0000)
  65 H     -1.157225    6.199437    1.757236    ( 0.0000,  0.0000,  0.0000)
  66 H      4.558518    5.451853    1.292869    ( 0.0000,  0.0000,  0.0000)
  67 H      4.178061    4.955038    2.853638    ( 0.0000,  0.0000,  0.0000)
  68 H      8.013035    3.853076    5.558469    ( 0.0000,  0.0000,  0.0000)
  69 H      7.805980    5.020201    4.577213    ( 0.0000,  0.0000,  0.0000)
  70 H     -0.531157    9.669234    7.606840    ( 0.0000,  0.0000,  0.0000)
  71 H     -0.896076    8.720262    6.246166    ( 0.0000,  0.0000,  0.0000)
  72 Na     2.094253   -0.049347    0.033467    ( 0.0000,  0.0000,  0.0000)

Unit cell:
           periodic     x           y           z      points  spacing
  1. axis:    yes    8.956370    0.000000    0.000000    44     0.2036
  2. axis:    yes    0.000000    8.956370    0.000000    44     0.2036
  3. axis:    yes    0.000000    0.000000    8.956370    44     0.2036

  Lengths:   8.956370   8.956370   8.956370
  Angles:   90.000000  90.000000  90.000000

Effective grid spacing dv^(1/3) = 0.2036

                     log10-error:    total        iterations:
           time      wfs    density  energy       fermi  poisson
iter:   1  11:06:16          +inf  -349.631087    0      1      
iter:   2  11:06:17         -0.87  -345.570973    0      1      
iter:   3  11:06:18         -0.91  -332.905105    18     1      
iter:   4  11:06:19         -1.24  -333.808991    3      1      
iter:   5  11:06:20         -1.41  -332.649918    6      1      
iter:   6  11:06:21         -2.31  -332.652873    3      1      
iter:   7  11:06:22         -2.36  -332.631260    2      1      
iter:   8  11:06:23         -2.60  -332.624933    2      1      
iter:   9  11:06:24         -3.27  -332.624863    1      1      
iter:  10  11:06:25         -3.39  -332.624625    1      1      
iter:  11  11:06:26         -3.80  -332.624617    1      1      
iter:  12  11:06:27         -3.84  -332.624591    1      1      
iter:  13  11:06:27         -4.31  -332.624590    1      1      

Converged after 13 iterations.

Dipole moment: (18.250397, -2.917581, 26.380765) |e|*Ang

Energy contributions relative to reference atoms: (reference = -53998.593513)

Kinetic:       +281.671243
Potential:     -321.828777
External:        +0.000000
XC:            -301.923079
Entropy (-ST):   -0.000001
Local:           +9.456023
--------------------------
Free energy:   -332.624590
Extrapolated:  -332.624590

Fermi level: -0.57369

 Band  Eigenvalues  Occupancy
    0    -26.71036    2.00000
    1    -26.69734    2.00000
    2    -26.66141    2.00000
    3    -23.08487    2.00000
    4    -21.94553    2.00000
    5    -21.80332    2.00000
    6    -21.76074    2.00000
    7    -21.60871    2.00000
    8    -21.54729    2.00000
    9    -21.37380    2.00000
   10    -21.31797    2.00000
   11    -21.21196    2.00000
   12    -21.11390    2.00000
   13    -21.03634    2.00000
   14    -20.99718    2.00000
   15    -20.87058    2.00000
   16    -20.82082    2.00000
   17    -20.69720    2.00000
   18    -20.59479    2.00000
   19    -20.55367    2.00000
   20    -20.48868    2.00000
   21    -20.36162    2.00000
   22    -20.31605    2.00000
   23    -20.16978    2.00000
   24    -20.10600    2.00000
   25    -19.62795    2.00000
   26    -19.54899    2.00000
   27    -10.64568    2.00000
   28    -10.16484    2.00000
   29    -10.05072    2.00000
   30     -9.65524    2.00000
   31     -9.59841    2.00000
   32     -9.53496    2.00000
   33     -9.51394    2.00000
   34     -9.45412    2.00000
   35     -9.35777    2.00000
   36     -9.29637    2.00000
   37     -9.20805    2.00000
   38     -9.14956    2.00000
   39     -9.08861    2.00000
   40     -9.01429    2.00000
   41     -8.91194    2.00000
   42     -8.82763    2.00000
   43     -8.76203    2.00000
   44     -8.73941    2.00000
   45     -8.63748    2.00000
   46     -8.35382    2.00000
   47     -8.12420    2.00000
   48     -8.05917    2.00000
   49     -8.00503    2.00000
   50     -7.79969    2.00000
   51     -7.52926    2.00000
   52     -7.13795    2.00000
   53     -6.97587    2.00000
   54     -6.67316    2.00000
   55     -6.51347    2.00000
   56     -6.46274    2.00000
   57     -6.32362    2.00000
   58     -6.16320    2.00000
   59     -5.98723    2.00000
   60     -5.92095    2.00000
   61     -5.74315    2.00000
   62     -5.68034    2.00000
   63     -5.41537    2.00000
   64     -5.36441    2.00000
   65     -5.34180    2.00000
   66     -5.21962    2.00000
   67     -5.14869    2.00000
   68     -4.91444    2.00000
   69     -4.88027    2.00000
   70     -4.63255    2.00000
   71     -4.45696    2.00000
   72     -4.42218    2.00000
   73     -4.26205    2.00000
   74     -4.20369    2.00000
   75     -4.14296    2.00000
   76     -4.10533    2.00000
   77     -3.88793    2.00000
   78     -3.76980    2.00000
   79     -3.71250    2.00000
   80     -3.55069    2.00000
   81     -3.53618    2.00000
   82     -3.49401    2.00000
   83     -3.44083    2.00000
   84     -3.36825    2.00000
   85     -3.33097    2.00000
   86     -3.28340    2.00000
   87     -3.15612    2.00000
   88     -3.12238    2.00000
   89     -3.11764    2.00000
   90     -3.05133    2.00000
   91     -2.95953    2.00000
   92     -2.89291    2.00000
   93     -2.83358    2.00000
   94     -2.71991    2.00000
   95     -2.67720    2.00000
   96     -2.63223    2.00000
   97     -2.55463    2.00000
   98     -2.22688    2.00000
   99      1.07196    0.00000
  100      3.21775    0.00000
  101      3.38418    0.00000
  102      3.57329    0.00000
  103      3.86494    0.00000
  104      4.39722    0.00000
  105      4.65000    0.00000
  106      5.05064    0.00000
  107      5.37455    0.00000
  108      5.66273    0.00000
  109      5.80437    0.00000
  110      5.82707    0.00000
  111      6.12722    0.00000
  112      6.31833    0.00000
  113      6.50029    0.00000
  114      6.52690    0.00000
  115      6.61690    0.00000
  116      6.79632    0.00000
  117      6.96193    0.00000
  118      7.17139    0.00000
  119      7.54721    0.00000
  120      7.62454    0.00000
  121      7.86085    0.00000
  122      8.02901    0.00000

Gap: 3.299 eV
Transition (v -> c):
  (s=0, k=0, n=98, [0.00, 0.00, 0.00]) -> (s=0, k=0, n=99, [0.00, 0.00, 0.00])

Forces in eV/Ang:
  0 O     0.33907   -0.70591    1.15868
  1 O    -1.57595   -0.57207    0.34880
  2 O    -0.20510    0.09124    0.12699
  3 O    -0.63199    0.19555    0.28436
  4 O    -1.59311    1.30948   -0.71829
  5 O     0.51233   -0.14272   -0.10280
  6 O     0.53757    0.24092   -0.40108
  7 O     1.14307    0.03339   -0.67459
  8 O    -0.18924    0.97780   -0.72773
  9 O     0.43158   -0.97591    1.55158
 10 O    -0.51043    0.71492   -0.87522
 11 O     0.83659   -0.28002    0.10103
 12 O    -0.60246   -1.23175   -0.18239
 13 O    -0.34143   -0.08024    0.23709
 14 O     0.07107    0.98292   -0.08313
 15 O     0.56588    1.42121    0.87405
 16 O     1.45432   -0.64810    0.28081
 17 O     0.36309    0.23168   -0.46191
 18 O    -0.00858    0.05454   -0.28932
 19 O    -0.18500    1.11547    0.64330
 20 O    -0.59068    0.43899   -0.74729
 21 O     0.57083   -0.57978   -0.87473
 22 O    -0.71510   -0.74149    0.36751
 23 O     0.88267   -0.65571   -0.89712
 24 H     0.04606    0.25335   -0.84150
 25 H    -0.48911    0.63455   -0.28904
 26 H     0.17772   -0.11248    0.37499
 27 H     0.84802    0.72910   -0.90252
 28 H     0.31663   -0.38818   -0.14554
 29 H     0.25772    0.19903    0.21648
 30 H    -0.24737   -0.29530    0.42933
 31 H     1.24680    0.14420   -0.58993
 32 H     0.29401   -0.59443    0.53881
 33 H     0.69605   -1.22623    0.65710
 34 H    -0.38441    0.40445    0.29589
 35 H    -0.09153   -0.27712   -0.44503
 36 H     0.17916   -0.75048    0.55319
 37 H    -0.25387   -0.09095   -0.60932
 38 H     0.00526   -0.37956    0.26900
 39 H     0.39298    0.04291    0.12734
 40 H    -0.04908   -0.36724   -0.43345
 41 H    -0.07913   -1.07708    1.03429
 42 H     0.48219    0.14839   -0.78061
 43 H     0.00116   -0.49597   -0.18183
 44 H    -0.37152   -0.02816    0.80800
 45 H     0.65834   -0.18439   -0.51465
 46 H    -0.69008    0.75771    0.63923
 47 H    -0.17214   -0.50941   -0.58115
 48 H     1.38310   -0.45169    0.42066
 49 H    -0.05260    0.63569   -0.08547
 50 H    -0.07331   -0.06144   -0.19936
 51 H     0.19401    0.25321   -0.06731
 52 H    -0.35211    0.02228   -0.10468
 53 H     0.05351   -1.07280    0.28112
 54 H     0.20160   -0.68537   -0.21765
 55 H     0.21075   -0.38775    0.12446
 56 H    -0.41479    0.84431    0.38267
 57 H    -0.89434    0.33579   -0.92129
 58 H    -0.05782    0.36397    0.53834
 59 H    -0.64868    0.53285   -0.19319
 60 H    -0.94309    0.42853   -0.17365
 61 H     0.31249   -0.62950    0.42274
 62 H    -0.85915    0.70407   -0.66443
 63 H    -0.00470    0.11050   -0.69616
 64 H     0.72313   -0.39033    0.60429
 65 H    -0.33650   -0.21089    0.31098
 66 H    -0.58218   -0.01483    0.11574
 67 H    -0.61852    0.18070    0.40384
 68 H     0.55000    0.63319   -0.62082
 69 H    -0.09029    0.66781    0.07675
 70 H    -0.62247    0.20653    0.32364
 71 H    -0.17137    0.26612    1.03807
 72 Na    0.04563   -0.09407    0.38695

System changes: positions 

Initializing position-dependent things.

Density initialized from wave functions
       .--------------O------.  
      /|                     |  
     / |    H O       H      |  
    /  |     HO            H |  
   /  H| O      H     HO     |  
  /    | HH      O   HHH     |  
 *     |     H H HO          |  
 |    H| O      H     H  O   |  
 |     |H   H H     H OHH    |  
 |  H  OH      HO H  OH      |  
 |     |       H   H  O      |  
 |    H.OH--Na--O-----HHH----.  
 | O H/   O     H         O /   
 |   /     H  H         H  /    
 |  /      HO           H /     
 | /                     /      
 |/                 H O /       
 *---------------------*        

Positions:
   0 O      4.075931    4.985258    4.425613    ( 0.0000,  0.0000,  0.0000)
   1 O      4.980907    7.567817    4.525655    ( 0.0000,  0.0000,  0.0000)
   2 O      1.413178    5.062196    2.523838    ( 0.0000,  0.0000,  0.0000)
   3 O      5.206148    2.698166    4.932917    ( 0.0000,  0.0000,  0.0000)
   4 O      7.857929    2.394549    4.793243    ( 0.0000,  0.0000,  0.0000)
   5 O      5.461382    4.557308    7.482312    ( 0.0000,  0.0000,  0.0000)
   6 O      3.147910    7.860346    7.078239    ( 0.0000,  0.0000,  0.0000)
   7 O      6.559015    5.914086    3.310000    ( 0.0000,  0.0000,  0.0000)
   8 O      6.213558   -0.007323    8.758102    ( 0.0000,  0.0000,  0.0000)
   9 O      3.676071    6.169705    8.714664    ( 0.0000,  0.0000,  0.0000)
  10 O      3.390320    9.308506    3.685070    ( 0.0000,  0.0000,  0.0000)
  11 O      1.983980    4.069217    8.394241    ( 0.0000,  0.0000,  0.0000)
  12 O      8.251884    1.652204    0.315842    ( 0.0000,  0.0000,  0.0000)
  13 O      1.865969    5.301069    5.617818    ( 0.0000,  0.0000,  0.0000)
  14 O      4.062463    2.188764    1.637438    ( 0.0000,  0.0000,  0.0000)
  15 O      6.697152    7.549308    6.276591    ( 0.0000,  0.0000,  0.0000)
  16 O      0.265057    2.343914    2.640311    ( 0.0000,  0.0000,  0.0000)
  17 O      8.080875    3.916953    8.512709    ( 0.0000,  0.0000,  0.0000)
  18 O      4.217347    2.310981    7.580352    ( 0.0000,  0.0000,  0.0000)
  19 O      2.183784    9.837938    6.160564    ( 0.0000,  0.0000,  0.0000)
  20 O     -0.486602    6.071832    1.024796    ( 0.0000,  0.0000,  0.0000)
  21 O      4.673442    4.755947    1.992006    ( 0.0000,  0.0000,  0.0000)
  22 O      8.271271    4.856384    5.450864    ( 0.0000,  0.0000,  0.0000)
  23 O     -0.391871    9.538069    6.633349    ( 0.0000,  0.0000,  0.0000)
  24 H      3.247892    4.847802    5.054112    ( 0.0000,  0.0000,  0.0000)
  25 H      4.670250    4.121303    4.625196    ( 0.0000,  0.0000,  0.0000)
  26 H      4.321472    8.285585    4.118851    ( 0.0000,  0.0000,  0.0000)
  27 H      4.446511    6.688102    4.750886    ( 0.0000,  0.0000,  0.0000)
  28 H      0.744028    4.334754    2.649948    ( 0.0000,  0.0000,  0.0000)
  29 H      1.435252    5.433482    3.438060    ( 0.0000,  0.0000,  0.0000)
  30 H      6.217940    2.499207    4.890835    ( 0.0000,  0.0000,  0.0000)
  31 H      4.693266    2.329689    5.719729    ( 0.0000,  0.0000,  0.0000)
  32 H      8.342173    2.430745    3.867258    ( 0.0000,  0.0000,  0.0000)
  33 H      8.243294    1.797607    5.443664    ( 0.0000,  0.0000,  0.0000)
  34 H      5.462472    4.529108    6.472965    ( 0.0000,  0.0000,  0.0000)
  35 H      4.835843    5.297043    7.859988    ( 0.0000,  0.0000,  0.0000)
  36 H      3.899860    7.984006    6.433258    ( 0.0000,  0.0000,  0.0000)
  37 H      2.671214    8.701217    6.751278    ( 0.0000,  0.0000,  0.0000)
  38 H      6.069620    6.774911    3.511448    ( 0.0000,  0.0000,  0.0000)
  39 H      5.874244    5.396863    2.758515    ( 0.0000,  0.0000,  0.0000)
  40 H      6.410748   -0.601686    7.972072    ( 0.0000,  0.0000,  0.0000)
  41 H      6.347473   -0.545361    9.546871    ( 0.0000,  0.0000,  0.0000)
  42 H      3.265030    6.902125    8.215621    ( 0.0000,  0.0000,  0.0000)
  43 H      2.937824    5.522961    8.862222    ( 0.0000,  0.0000,  0.0000)
  44 H      3.746011    9.975180    2.996917    ( 0.0000,  0.0000,  0.0000)
  45 H      2.845860    9.760374    4.401851    ( 0.0000,  0.0000,  0.0000)
  46 H      2.409297    3.432048    7.724155    ( 0.0000,  0.0000,  0.0000)
  47 H      0.992880    4.018506    8.422188    ( 0.0000,  0.0000,  0.0000)
  48 H      7.712906    2.513984   -0.045621    ( 0.0000,  0.0000,  0.0000)
  49 H      7.559759    0.903160    0.312108    ( 0.0000,  0.0000,  0.0000)
  50 H      2.016807    5.739266    6.493434    ( 0.0000,  0.0000,  0.0000)
  51 H      0.871565    4.990249    5.619172    ( 0.0000,  0.0000,  0.0000)
  52 H      3.294698    2.401063    1.050238    ( 0.0000,  0.0000,  0.0000)
  53 H      4.368835    3.199508    1.736662    ( 0.0000,  0.0000,  0.0000)
  54 H      6.878327    6.587890    6.376320    ( 0.0000,  0.0000,  0.0000)
  55 H      5.966113    7.681972    5.526666    ( 0.0000,  0.0000,  0.0000)
  56 H      1.032064    1.717558    2.810351    ( 0.0000,  0.0000,  0.0000)
  57 H     -0.109092    1.898632    1.818775    ( 0.0000,  0.0000,  0.0000)
  58 H      7.621673    4.293168    7.696901    ( 0.0000,  0.0000,  0.0000)
  59 H      8.232678    4.657480    9.188277    ( 0.0000,  0.0000,  0.0000)
  60 H      4.918892    3.071688    7.670959    ( 0.0000,  0.0000,  0.0000)
  61 H      4.584575    1.660534    8.234769    ( 0.0000,  0.0000,  0.0000)
  62 H      1.241572    9.586604    6.487964    ( 0.0000,  0.0000,  0.0000)
  63 H      2.626365   10.464783    6.810509    ( 0.0000,  0.0000,  0.0000)
  64 H      0.351157    5.908501    1.555046    ( 0.0000,  0.0000,  0.0000)
  65 H     -1.166674    6.194061    1.756608    ( 0.0000,  0.0000,  0.0000)
  66 H      4.551376    5.461146    1.304770    ( 0.0000,  0.0000,  0.0000)
  67 H      4.175058    4.963654    2.857200    ( 0.0000,  0.0000,  0.0000)
  68 H      8.018002    3.855766    5.556767    ( 0.0000,  0.0000,  0.0000)
  69 H      7.806464    5.016759    4.572165    ( 0.0000,  0.0000,  0.0000)
  70 H     -0.542308    9.680309    7.610203    ( 0.0000,  0.0000,  0.0000)
  71 H     -0.904963    8.725275    6.243330    ( 0.0000,  0.0000,  0.0000)
  72 Na     2.094289   -0.049357    0.033537    ( 0.0000,  0.0000,  0.0000)

Unit cell:
           periodic     x           y           z      points  spacing
  1. axis:    yes    8.956370    0.000000    0.000000    44     0.2036
  2. axis:    yes    0.000000    8.956370    0.000000    44     0.2036
  3. axis:    yes    0.000000    0.000000    8.956370    44     0.2036

  Lengths:   8.956370   8.956370   8.956370
  Angles:   90.000000  90.000000  90.000000

Effective grid spacing dv^(1/3) = 0.2036

                     log10-error:    total        iterations:
           time      wfs    density  energy       fermi  poisson
iter:   1  11:06:31          +inf  -332.639575    1      1      
iter:   2  11:06:32         -2.58  -332.635577    1      1      
iter:   3  11:06:33         -2.61  -332.622311    1      1      
iter:   4  11:06:34         -2.86  -332.620393    1      1      
iter:   5  11:06:35         -3.45  -332.620373    1      1      
iter:   6  11:06:36         -3.50  -332.620313    1      1      
iter:   7  11:06:36         -3.95  -332.620308    1      1      
iter:   8  11:06:37         -4.50  -332.620307    0      1      

Converged after 8 iterations.

Dipole moment: (18.283606, -2.850202, 27.047655) |e|*Ang

Energy contributions relative to reference atoms: (reference = -53998.593513)

Kinetic:       +280.153524
Potential:     -320.769659
External:        +0.000000
XC:            -301.494361
Entropy (-ST):   -0.000001
Local:           +9.490188
--------------------------
Free energy:   -332.620308
Extrapolated:  -332.620307

Fermi level: -0.56934

 Band  Eigenvalues  Occupancy
    0    -26.71018    2.00000
    1    -26.69796    2.00000
    2    -26.66187    2.00000
    3    -23.06153    2.00000
    4    -21.96545    2.00000
    5    -21.85594    2.00000
    6    -21.75166    2.00000
    7    -21.57666    2.00000
    8    -21.49174    2.00000
    9    -21.41891    2.00000
   10    -21.29830    2.00000
   11    -21.20051    2.00000
   12    -21.14159    2.00000
   13    -21.06725    2.00000
   14    -21.02936    2.00000
   15    -20.85237    2.00000
   16    -20.75079    2.00000
   17    -20.65855    2.00000
   18    -20.56580    2.00000
   19    -20.50706    2.00000
   20    -20.46764    2.00000
   21    -20.37829    2.00000
   22    -20.29169    2.00000
   23    -20.16518    2.00000
   24    -20.07569    2.00000
   25    -19.60282    2.00000
   26    -19.52240    2.00000
   27    -10.70451    2.00000
   28    -10.17536    2.00000
   29     -9.99388    2.00000
   30     -9.62051    2.00000
   31     -9.58880    2.00000
   32     -9.56406    2.00000
   33     -9.48678    2.00000
   34     -9.44359    2.00000
   35     -9.31287    2.00000
   36     -9.29807    2.00000
   37     -9.20577    2.00000
   38     -9.17085    2.00000
   39     -9.07683    2.00000
   40     -8.99369    2.00000
   41     -8.91745    2.00000
   42     -8.80626    2.00000
   43     -8.72502    2.00000
   44     -8.71582    2.00000
   45     -8.61010    2.00000
   46     -8.26466    2.00000
   47     -8.14771    2.00000
   48     -8.07713    2.00000
   49     -7.97261    2.00000
   50     -7.77896    2.00000
   51     -7.52873    2.00000
   52     -7.11588    2.00000
   53     -7.02146    2.00000
   54     -6.67252    2.00000
   55     -6.49409    2.00000
   56     -6.45746    2.00000
   57     -6.32947    2.00000
   58     -6.15623    2.00000
   59     -5.96879    2.00000
   60     -5.89655    2.00000
   61     -5.76835    2.00000
   62     -5.66704    2.00000
   63     -5.40425    2.00000
   64     -5.37363    2.00000
   65     -5.35727    2.00000
   66     -5.21473    2.00000
   67     -5.14348    2.00000
   68     -4.92364    2.00000
   69     -4.87837    2.00000
   70     -4.64774    2.00000
   71     -4.45149    2.00000
   72     -4.40013    2.00000
   73     -4.24501    2.00000
   74     -4.19271    2.00000
   75     -4.14889    2.00000
   76     -4.09966    2.00000
   77     -3.89796    2.00000
   78     -3.76849    2.00000
   79     -3.72604    2.00000
   80     -3.55153    2.00000
   81     -3.54808    2.00000
   82     -3.50857    2.00000
   83     -3.43974    2.00000
   84     -3.37116    2.00000
   85     -3.32327    2.00000
   86     -3.28809    2.00000
   87     -3.14458    2.00000
   88     -3.10491    2.00000
   89     -3.08000    2.00000
   90     -3.02876    2.00000
   91     -2.93919    2.00000
   92     -2.88225    2.00000
   93     -2.83188    2.00000
   94     -2.71532    2.00000
   95     -2.67503    2.00000
   96     -2.63230    2.00000
   97     -2.53907    2.00000
   98     -2.22099    2.00000
   99      1.07453    0.00000
  100      3.20319    0.00000
  101      3.40203    0.00000
  102      3.58020    0.00000
  103      3.85135    0.00000
  104      4.38502    0.00000
  105      4.65641    0.00000
  106      5.04471    0.00000
  107      5.35892    0.00000
  108      5.65017    0.00000
  109      5.80889    0.00000
  110      5.82938    0.00000
  111      6.15771    0.00000
  112      6.32048    0.00000
  113      6.48920    0.00000
  114      6.52356    0.00000
  115      6.61176    0.00000
  116      6.77732    0.00000
  117      6.96570    0.00000
  118      7.16668    0.00000
  119      7.52194    0.00000
  120      7.64661    0.00000
  121      7.85733    0.00000
  122      8.00337    0.00000

Gap: 3.296 eV
Transition (v -> c):
  (s=0, k=0, n=98, [0.00, 0.00, 0.00]) -> (s=0, k=0, n=99, [0.00, 0.00, 0.00])

Forces in eV/Ang:
  0 O     0.04229   -0.77946    1.36301
  1 O    -1.53686   -0.53061    0.29101
  2 O    -0.28092   -0.03134    0.12442
  3 O    -0.24439    0.33795   -0.11516
  4 O    -1.44906    1.40884   -1.21220
  5 O     0.34738    0.10759   -0.45697
  6 O     0.35492    0.06693   -0.11463
  7 O     1.01409    0.26530   -0.64682
  8 O    -0.17018    0.81136   -0.66507
  9 O     0.87387   -1.11320    1.77196
 10 O    -0.59717    0.28161   -0.66987
 11 O     1.15356   -0.41773   -0.03295
 12 O    -0.70858   -0.98970   -0.35388
 13 O    -0.49381   -0.13876    0.24200
 14 O    -0.08359    0.67834   -0.16689
 15 O     0.52941    1.01374    0.80826
 16 O     1.30227   -0.59912    0.22720
 17 O     0.02573   -0.06637   -1.26860
 18 O    -0.01881   -0.60779    0.08078
 19 O    -0.31407    0.88121    0.34233
 20 O    -0.38182    0.41336   -0.36436
 21 O     0.45237   -0.47838   -0.57894
 22 O    -0.63898   -0.68366    0.35312
 23 O     0.84273   -0.60683   -0.62795
 24 H     0.32683    0.39005   -1.05073
 25 H    -0.53306    0.60702   -0.28907
 26 H     0.15270   -0.12587    0.42006
 27 H     0.82817    0.70677   -0.85742
 28 H     0.35116   -0.35879   -0.23402
 29 H     0.30650    0.29503    0.29620
 30 H    -0.48776   -0.28744    0.47535
 31 H     1.13524    0.01894   -0.25910
 32 H     0.10514   -0.58645    0.81965
 33 H     0.75043   -1.35050    0.80007
 34 H    -0.39162    0.43699    0.78123
 35 H     0.08118   -0.55210   -0.58754
 36 H     0.45273   -0.71764    0.34400
 37 H    -0.34266    0.02569   -0.62945
 38 H     0.14064   -0.51078    0.30227
 39 H     0.37241   -0.08709    0.06273
 40 H    -0.05801   -0.29785   -0.29963
 41 H    -0.08960   -0.97613    0.83179
 42 H     0.25144    0.63055   -1.11021
 43 H    -0.22001   -0.81429   -0.11986
 44 H    -0.24038    0.32670    0.57554
 45 H     0.61162   -0.07626   -0.45707
 46 H    -0.78839    0.90612    0.80641
 47 H    -0.36570   -0.51595   -0.57357
 48 H     1.52465   -0.53809    0.57725
 49 H    -0.07047    0.52145   -0.07141
 50 H    -0.07822   -0.08383   -0.22697
 51 H     0.33988    0.32368   -0.07988
 52 H    -0.21633    0.06388   -0.01636
 53 H     0.06346   -0.80706    0.26086
 54 H     0.13053   -0.26654   -0.24563
 55 H     0.27702   -0.38451    0.21316
 56 H    -0.27273    0.73959    0.43093
 57 H    -0.90390    0.37768   -0.88975
 58 H     0.14856    0.17226    0.97478
 59 H    -0.55590    0.91233    0.15864
 60 H    -0.73845    0.64290   -0.12467
 61 H     0.08346   -0.24166    0.04869
 62 H    -0.76887    0.79433   -0.56868
 63 H    -0.00552    0.27560   -0.48045
 64 H     0.30885   -0.31568    0.39291
 65 H    -0.14056   -0.22448    0.16247
 66 H    -0.55667    0.02276   -0.00260
 67 H    -0.49326    0.04467    0.24817
 68 H     0.49898    0.54674   -0.60306
 69 H    -0.08567    0.67931    0.09702
 70 H    -0.54052    0.14341    0.02903
 71 H    -0.15415    0.24316    1.05444
 72 Na    0.02393   -0.09015    0.35423

System changes: positions 

Initializing position-dependent things.

Density initialized from wave functions
       .--------------O------.  
      /|                     |  
     / |    H O       H      |  
    /  |     HO            H |  
   /  H| O      H     HO     |  
  /    | HH      O   HHH     |  
 *     |     H H HO          |  
 |    H| O      H     H  O   |  
 |     |H   H H     H OHH    |  
 |  H  OH      HO H  OH      |  
 |     |       H   H  O      |  
 |    H.OH--Na--O-----HHH----.  
 | O H/   O     H         O /   
 |   /     H  H            /    
 |  /      HO           H /     
 | /                     /      
 |/                 H O /       
 *---------------------*        

Positions:
   0 O      4.073384    4.984663    4.425117    ( 0.0000,  0.0000,  0.0000)
   1 O      4.976946    7.570693    4.526431    ( 0.0000,  0.0000,  0.0000)
   2 O      1.413298    5.063001    2.524914    ( 0.0000,  0.0000,  0.0000)
   3 O      5.205752    2.695457    4.937855    ( 0.0000,  0.0000,  0.0000)
   4 O      7.857684    2.394976    4.794062    ( 0.0000,  0.0000,  0.0000)
   5 O      5.463657    4.557448    7.480988    ( 0.0000,  0.0000,  0.0000)
   6 O      3.148013    7.859718    7.076509    ( 0.0000,  0.0000,  0.0000)
   7 O      6.559291    5.915764    3.313739    ( 0.0000,  0.0000,  0.0000)
   8 O      6.215205   -0.008255    8.756767    ( 0.0000,  0.0000,  0.0000)
   9 O      3.677905    6.166774    8.713482    ( 0.0000,  0.0000,  0.0000)
  10 O      3.392871    9.311419    3.683953    ( 0.0000,  0.0000,  0.0000)
  11 O      1.982105    4.072486    8.391932    ( 0.0000,  0.0000,  0.0000)
  12 O      8.255601    1.646060    0.317919    ( 0.0000,  0.0000,  0.0000)
  13 O      1.866859    5.302352    5.619010    ( 0.0000,  0.0000,  0.0000)
  14 O      4.063048    2.191580    1.639192    ( 0.0000,  0.0000,  0.0000)
  15 O      6.698747    7.551524    6.277002    ( 0.0000,  0.0000,  0.0000)
  16 O      0.268312    2.343308    2.637197    ( 0.0000,  0.0000,  0.0000)
  17 O      8.078723    3.918118    8.513936    ( 0.0000,  0.0000,  0.0000)
  18 O      4.218616    2.313300    7.580710    ( 0.0000,  0.0000,  0.0000)
  19 O      2.181642    9.837242    6.164210    ( 0.0000,  0.0000,  0.0000)
  20 O     -0.487133    6.069438    1.023935    ( 0.0000,  0.0000,  0.0000)
  21 O      4.672375    4.757561    1.990632    ( 0.0000,  0.0000,  0.0000)
  22 O      8.268450    4.857756    5.448964    ( 0.0000,  0.0000,  0.0000)
  23 O     -0.390958    9.536743    6.632274    ( 0.0000,  0.0000,  0.0000)
  24 H      3.235197    4.824093    5.055258    ( 0.0000,  0.0000,  0.0000)
  25 H      4.677399    4.130528    4.620054    ( 0.0000,  0.0000,  0.0000)
  26 H      4.325725    8.291236    4.113078    ( 0.0000,  0.0000,  0.0000)
  27 H      4.443204    6.692156    4.739690    ( 0.0000,  0.0000,  0.0000)
  28 H      0.754551    4.324178    2.654362    ( 0.0000,  0.0000,  0.0000)
  29 H      1.414812    5.432396    3.439671    ( 0.0000,  0.0000,  0.0000)
  30 H      6.223858    2.492846    4.892826    ( 0.0000,  0.0000,  0.0000)
  31 H      4.681614    2.319762    5.698242    ( 0.0000,  0.0000,  0.0000)
  32 H      8.355112    2.425871    3.860767    ( 0.0000,  0.0000,  0.0000)
  33 H      8.250461    1.801655    5.444939    ( 0.0000,  0.0000,  0.0000)
  34 H      5.447590    4.524981    6.461516    ( 0.0000,  0.0000,  0.0000)
  35 H      4.839979    5.307639    7.867124    ( 0.0000,  0.0000,  0.0000)
  36 H      3.891988    7.980077    6.434895    ( 0.0000,  0.0000,  0.0000)
  37 H      2.668541    8.692574    6.746936    ( 0.0000,  0.0000,  0.0000)
  38 H      6.062147    6.779626    3.503637    ( 0.0000,  0.0000,  0.0000)
  39 H      5.871969    5.407904    2.761603    ( 0.0000,  0.0000,  0.0000)
  40 H      6.404084   -0.601406    7.960570    ( 0.0000,  0.0000,  0.0000)
  41 H      6.349081   -0.555587    9.547825    ( 0.0000,  0.0000,  0.0000)
  42 H      3.276184    6.899547    8.229817    ( 0.0000,  0.0000,  0.0000)
  43 H      2.933948    5.538183    8.863384    ( 0.0000,  0.0000,  0.0000)
  44 H      3.742892    9.961625    2.999930    ( 0.0000,  0.0000,  0.0000)
  45 H      2.846239    9.748999    4.401897    ( 0.0000,  0.0000,  0.0000)
  46 H      2.411723    3.428618    7.726100    ( 0.0000,  0.0000,  0.0000)
  47 H      0.995404    4.015446    8.419345    ( 0.0000,  0.0000,  0.0000)
  48 H      7.718638    2.509410   -0.065876    ( 0.0000,  0.0000,  0.0000)
  49 H      7.556158    0.907782    0.313763    ( 0.0000,  0.0000,  0.0000)
  50 H      2.029001    5.747656    6.489323    ( 0.0000,  0.0000,  0.0000)
  51 H      0.869558    4.986367    5.632714    ( 0.0000,  0.0000,  0.0000)
  52 H      3.284345    2.400324    1.059993    ( 0.0000,  0.0000,  0.0000)
  53 H      4.378394    3.182435    1.739441    ( 0.0000,  0.0000,  0.0000)
  54 H      6.878519    6.579417    6.374238    ( 0.0000,  0.0000,  0.0000)
  55 H      5.967413    7.679758    5.521016    ( 0.0000,  0.0000,  0.0000)
  56 H      1.028576    1.718613    2.808344    ( 0.0000,  0.0000,  0.0000)
  57 H     -0.109847    1.896235    1.813025    ( 0.0000,  0.0000,  0.0000)
  58 H      7.621298    4.303410    7.687727    ( 0.0000,  0.0000,  0.0000)
  59 H      8.222592    4.643956    9.184622    ( 0.0000,  0.0000,  0.0000)
  60 H      4.914714    3.063522    7.661469    ( 0.0000,  0.0000,  0.0000)
  61 H      4.596037    1.656399    8.243326    ( 0.0000,  0.0000,  0.0000)
  62 H      1.230278    9.578394    6.474359    ( 0.0000,  0.0000,  0.0000)
  63 H      2.637367   10.452837    6.804930    ( 0.0000,  0.0000,  0.0000)
  64 H      0.357957    5.896619    1.564713    ( 0.0000,  0.0000,  0.0000)
  65 H     -1.176460    6.188147    1.756370    ( 0.0000,  0.0000,  0.0000)
  66 H      4.542903    5.470494    1.316665    ( 0.0000,  0.0000,  0.0000)
  67 H      4.170874    4.972376    2.861357    ( 0.0000,  0.0000,  0.0000)
  68 H      8.024164    3.859766    5.553622    ( 0.0000,  0.0000,  0.0000)
  69 H      7.806743    5.014943    4.567350    ( 0.0000,  0.0000,  0.0000)
  70 H     -0.554753    9.691727    7.613634    ( 0.0000,  0.0000,  0.0000)
  71 H     -0.914220    8.730870    6.243018    ( 0.0000,  0.0000,  0.0000)
  72 Na     2.094327   -0.049376    0.033645    ( 0.0000,  0.0000,  0.0000)

Unit cell:
           periodic     x           y           z      points  spacing
  1. axis:    yes    8.956370    0.000000    0.000000    44     0.2036
  2. axis:    yes    0.000000    8.956370    0.000000    44     0.2036
  3. axis:    yes    0.000000    0.000000    8.956370    44     0.2036

  Lengths:   8.956370   8.956370   8.956370
  Angles:   90.000000  90.000000  90.000000

Effective grid spacing dv^(1/3) = 0.2036

                     log10-error:    total        iterations:
           time      wfs    density  energy       fermi  poisson
iter:   1  11:06:41          +inf  -332.599015    1      1      
iter:   2  11:06:42         -2.58  -332.595349    1      1      
iter:   3  11:06:43         -2.62  -332.583091    1      1      
iter:   4  11:06:44         -2.87  -332.581276    1      1      
iter:   5  11:06:45         -3.47  -332.581258    1      1      
iter:   6  11:06:46         -3.52  -332.581206    1      1      
iter:   7  11:06:46         -3.96  -332.581200    1      1      
iter:   8  11:06:47         -4.53  -332.581200    0      1      

Converged after 8 iterations.

Dipole moment: (18.373263, -2.802649, 27.687193) |e|*Ang

Energy contributions relative to reference atoms: (reference = -53998.593513)

Kinetic:       +279.073112
Potential:     -319.961596
External:        +0.000000
XC:            -301.188481
Entropy (-ST):   -0.000001
Local:           +9.495765
--------------------------
Free energy:   -332.581201
Extrapolated:  -332.581200

Fermi level: -0.56748

 Band  Eigenvalues  Occupancy
    0    -26.70838    2.00000
    1    -26.69713    2.00000
    2    -26.66090    2.00000
    3    -23.03770    2.00000
    4    -22.00578    2.00000
    5    -21.91091    2.00000
    6    -21.71984    2.00000
    7    -21.54117    2.00000
    8    -21.51432    2.00000
    9    -21.43781    2.00000
   10    -21.29057    2.00000
   11    -21.20886    2.00000
   12    -21.17599    2.00000
   13    -21.08063    2.00000
   14    -21.02337    2.00000
   15    -20.86664    2.00000
   16    -20.70906    2.00000
   17    -20.63410    2.00000
   18    -20.51025    2.00000
   19    -20.49185    2.00000
   20    -20.42773    2.00000
   21    -20.38279    2.00000
   22    -20.21961    2.00000
   23    -20.15802    2.00000
   24    -20.04761    2.00000
   25    -19.60211    2.00000
   26    -19.50085    2.00000
   27    -10.76144    2.00000
   28    -10.18582    2.00000
   29     -9.94555    2.00000
   30     -9.72423    2.00000
   31     -9.57613    2.00000
   32     -9.52128    2.00000
   33     -9.45638    2.00000
   34     -9.42822    2.00000
   35     -9.30416    2.00000
   36     -9.27519    2.00000
   37     -9.24538    2.00000
   38     -9.13782    2.00000
   39     -9.04067    2.00000
   40     -8.98980    2.00000
   41     -8.91837    2.00000
   42     -8.78912    2.00000
   43     -8.70109    2.00000
   44     -8.67120    2.00000
   45     -8.58535    2.00000
   46     -8.18352    2.00000
   47     -8.16737    2.00000
   48     -8.11918    2.00000
   49     -7.94159    2.00000
   50     -7.74496    2.00000
   51     -7.52546    2.00000
   52     -7.09394    2.00000
   53     -7.05424    2.00000
   54     -6.67669    2.00000
   55     -6.49454    2.00000
   56     -6.42995    2.00000
   57     -6.33397    2.00000
   58     -6.14643    2.00000
   59     -5.95252    2.00000
   60     -5.88626    2.00000
   61     -5.78434    2.00000
   62     -5.65746    2.00000
   63     -5.40287    2.00000
   64     -5.39535    2.00000
   65     -5.34893    2.00000
   66     -5.21428    2.00000
   67     -5.13825    2.00000
   68     -4.93412    2.00000
   69     -4.86934    2.00000
   70     -4.66370    2.00000
   71     -4.44636    2.00000
   72     -4.38460    2.00000
   73     -4.23747    2.00000
   74     -4.17561    2.00000
   75     -4.15639    2.00000
   76     -4.09722    2.00000
   77     -3.91650    2.00000
   78     -3.76499    2.00000
   79     -3.74488    2.00000
   80     -3.58133    2.00000
   81     -3.54926    2.00000
   82     -3.52807    2.00000
   83     -3.43328    2.00000
   84     -3.37299    2.00000
   85     -3.31892    2.00000
   86     -3.29008    2.00000
   87     -3.13660    2.00000
   88     -3.08766    2.00000
   89     -3.04273    2.00000
   90     -3.00076    2.00000
   91     -2.92352    2.00000
   92     -2.85485    2.00000
   93     -2.82855    2.00000
   94     -2.70386    2.00000
   95     -2.66773    2.00000
   96     -2.63213    2.00000
   97     -2.52191    2.00000
   98     -2.22206    2.00000
   99      1.07827    0.00000
  100      3.18895    0.00000
  101      3.42169    0.00000
  102      3.58929    0.00000
  103      3.83831    0.00000
  104      4.36577    0.00000
  105      4.66402    0.00000
  106      5.04392    0.00000
  107      5.34482    0.00000
  108      5.63490    0.00000
  109      5.81287    0.00000
  110      5.84100    0.00000
  111      6.17951    0.00000
  112      6.32420    0.00000
  113      6.48353    0.00000
  114      6.51666    0.00000
  115      6.60533    0.00000
  116      6.76104    0.00000
  117      6.96845    0.00000
  118      7.16736    0.00000
  119      7.49430    0.00000
  120      7.65841    0.00000
  121      7.85880    0.00000
  122      7.98186    0.00000

Gap: 3.300 eV
Transition (v -> c):
  (s=0, k=0, n=98, [0.00, 0.00, 0.00]) -> (s=0, k=0, n=99, [0.00, 0.00, 0.00])

Forces in eV/Ang:
  0 O    -0.20711   -0.82301    1.50339
  1 O    -1.44295   -0.46378    0.22577
  2 O    -0.35415   -0.12344    0.16734
  3 O     0.18138    0.52606   -0.54506
  4 O    -1.23736    1.35530   -1.47392
  5 O     0.19721    0.32430   -0.74746
  6 O     0.15447   -0.10306    0.16864
  7 O     0.90869    0.47713   -0.61230
  8 O    -0.11972    0.54743   -0.51205
  9 O     1.25820   -1.25486    1.95497
 10 O    -0.67216   -0.21676   -0.44518
 11 O     1.36357   -0.48671   -0.09688
 12 O    -0.76073   -0.77631   -0.50423
 13 O    -0.61693   -0.20209    0.22978
 14 O    -0.28121    0.29607   -0.26780
 15 O     0.49629    0.57852    0.74728
 16 O     1.03084   -0.51283    0.12338
 17 O    -0.24428   -0.38982   -1.99626
 18 O    -0.06171   -1.25930    0.42398
 19 O    -0.48952    0.63359    0.03167
 20 O    -0.18979    0.37674    0.02652
 21 O     0.32246   -0.36060   -0.26003
 22 O    -0.56301   -0.56157    0.32671
 23 O     0.79095   -0.52996   -0.33196
 24 H     0.55942    0.53478   -1.19117
 25 H    -0.55688    0.55279   -0.27862
 26 H     0.10786   -0.14152    0.45044
 27 H     0.76602    0.63401   -0.78497
 28 H     0.37781   -0.31752   -0.31308
 29 H     0.34501    0.36256    0.33082
 30 H    -0.68392   -0.28147    0.50522
 31 H     0.95305   -0.16196    0.10183
 32 H    -0.07801   -0.56341    1.04358
 33 H     0.70451   -1.31618    0.79233
 34 H    -0.37090    0.46758    1.17685
 35 H     0.21141   -0.78523   -0.70122
 36 H     0.73779   -0.67712    0.12032
 37 H    -0.41902    0.13425   -0.64133
 38 H     0.27845   -0.60159    0.34484
 39 H     0.33071   -0.22693   -0.01528
 40 H    -0.07243   -0.21850   -0.14057
 41 H    -0.11899   -0.78779    0.50438
 42 H     0.06593    1.05332   -1.36718
 43 H    -0.41239   -1.07216   -0.06370
 44 H    -0.08062    0.70919    0.28322
 45 H     0.52763    0.04947   -0.35519
 46 H    -0.82182    0.97702    0.87934
 47 H    -0.52191   -0.51117   -0.55739
 48 H     1.61029   -0.56296    0.72082
 49 H    -0.11429    0.38385   -0.05172
 50 H    -0.08526   -0.10070   -0.23696
 51 H     0.46233    0.38995   -0.09612
 52 H    -0.07026    0.10403    0.08129
 53 H     0.09608   -0.46266    0.24384
 54 H     0.06484    0.16065   -0.27221
 55 H     0.32792   -0.36921    0.29344
 56 H    -0.08339    0.58369    0.47395
 57 H    -0.86793    0.44045   -0.79475
 58 H     0.29234    0.01060    1.30516
 59 H    -0.45585    1.28584    0.51949
 60 H    -0.49816    0.88330   -0.07114
 61 H    -0.13121    0.13559   -0.30644
 62 H    -0.64722    0.89204   -0.45822
 63 H     0.02126    0.45354   -0.25595
 64 H    -0.10003   -0.23443    0.17191
 65 H     0.06224   -0.23856    0.00696
 66 H    -0.51916    0.04814   -0.13630
 67 H    -0.34797   -0.09425    0.06973
 68 H     0.43318    0.40985   -0.57176
 69 H    -0.07884    0.68451    0.13104
 70 H    -0.43366    0.08302   -0.25814
 71 H    -0.14916    0.20397    1.03881
 72 Na    0.00534   -0.08795    0.32148

System changes: positions 

Initializing position-dependent things.

Density initialized from wave functions
       .--------------O------.  
      /|                     |  
     / |    H O       H      |  
    /  |     HO            H |  
   /  H| O      H     HO     |  
  /    | HH      O   HHH     |  
 *     |     H H HO          |  
 |    H| O      H     H  O   |  
 |     | H  H H     H OHH    |  
 |  H  OH      HO H  OH      |  
 |     |       H   H  O      |  
 |    H.OH--Na--O-----HHH----.  
 | O H/   O     H         O /   
 |   /     H  H            /    
 |  /      HO           H /     
 | /                     /      
 |/                 H O /       
 *---------------------*        

Positions:
   0 O      4.070806    4.983943    4.424848    ( 0.0000,  0.0000,  0.0000)
   1 O      4.972768    7.573498    4.527241    ( 0.0000,  0.0000,  0.0000)
   2 O      1.413365    5.063788    2.526016    ( 0.0000,  0.0000,  0.0000)
   3 O      5.205382    2.692827    4.942712    ( 0.0000,  0.0000,  0.0000)
   4 O      7.857252    2.395607    4.794658    ( 0.0000,  0.0000,  0.0000)
   5 O      5.465963    4.557637    7.479552    ( 0.0000,  0.0000,  0.0000)
   6 O      3.148140    7.859075    7.074805    ( 0.0000,  0.0000,  0.0000)
   7 O      6.559703    5.917514    3.317385    ( 0.0000,  0.0000,  0.0000)
   8 O      6.216834   -0.009103    8.755355    ( 0.0000,  0.0000,  0.0000)
   9 O      3.679929    6.163654    8.712595    ( 0.0000,  0.0000,  0.0000)
  10 O      3.395322    9.314299    3.682769    ( 0.0000,  0.0000,  0.0000)
  11 O      1.980436    4.075681    8.389607    ( 0.0000,  0.0000,  0.0000)
  12 O      8.259204    1.639799    0.319921    ( 0.0000,  0.0000,  0.0000)
  13 O      1.867657    5.303605    5.620237    ( 0.0000,  0.0000,  0.0000)
  14 O      4.063590    2.194441    1.640906    ( 0.0000,  0.0000,  0.0000)
  15 O      6.700416    7.553828    6.277526    ( 0.0000,  0.0000,  0.0000)
  16 O      0.271722    2.342623    2.634101    ( 0.0000,  0.0000,  0.0000)
  17 O      8.076534    3.919224    8.514862    ( 0.0000,  0.0000,  0.0000)
  18 O      4.219876    2.315430    7.581133    ( 0.0000,  0.0000,  0.0000)
  19 O      2.179426    9.836643    6.167862    ( 0.0000,  0.0000,  0.0000)
  20 O     -0.487694    6.067101    1.023078    ( 0.0000,  0.0000,  0.0000)
  21 O      4.671358    4.759122    1.989219    ( 0.0000,  0.0000,  0.0000)
  22 O      8.265544    4.859044    5.447113    ( 0.0000,  0.0000,  0.0000)
  23 O     -0.389927    9.535337    6.631150    ( 0.0000,  0.0000,  0.0000)
  24 H      3.223840    4.801663    5.053554    ( 0.0000,  0.0000,  0.0000)
  25 H      4.683216    4.141077    4.614245    ( 0.0000,  0.0000,  0.0000)
  26 H      4.330236    8.296550    4.108383    ( 0.0000,  0.0000,  0.0000)
  27 H      4.441729    6.697727    4.726613    ( 0.0000,  0.0000,  0.0000)
  28 H      0.765979    4.312840    2.658028    ( 0.0000,  0.0000,  0.0000)
  29 H      1.395196    5.432177    3.442075    ( 0.0000,  0.0000,  0.0000)
  30 H      6.228140    2.485811    4.896025    ( 0.0000,  0.0000,  0.0000)
  31 H      4.672241    2.309446    5.676998    ( 0.0000,  0.0000,  0.0000)
  32 H      8.367866    2.419648    3.856772    ( 0.0000,  0.0000,  0.0000)
  33 H      8.259313    1.802554    5.448109    ( 0.0000,  0.0000,  0.0000)
  34 H      5.431819    4.521972    6.452883    ( 0.0000,  0.0000,  0.0000)
  35 H      4.844622    5.316357    7.872582    ( 0.0000,  0.0000,  0.0000)
  36 H      3.885880    7.974527    6.436819    ( 0.0000,  0.0000,  0.0000)
  37 H      2.664865    8.684252    6.741058    ( 0.0000,  0.0000,  0.0000)
  38 H      6.055340    6.782903    3.496650    ( 0.0000,  0.0000,  0.0000)
  39 H      5.870486    5.418403    2.764654    ( 0.0000,  0.0000,  0.0000)
  40 H      6.397247   -0.601650    7.948731    ( 0.0000,  0.0000,  0.0000)
  41 H      6.350404   -0.567700    9.549986    ( 0.0000,  0.0000,  0.0000)
  42 H      3.287496    6.899490    8.240743    ( 0.0000,  0.0000,  0.0000)
  43 H      2.929086    5.550840    8.864394    ( 0.0000,  0.0000,  0.0000)
  44 H      3.739580    9.949765    3.003620    ( 0.0000,  0.0000,  0.0000)
  45 H      2.847880    9.737741    4.401092    ( 0.0000,  0.0000,  0.0000)
  46 H      2.412183    3.427526    7.730150    ( 0.0000,  0.0000,  0.0000)
  47 H      0.996678    4.011164    8.415169    ( 0.0000,  0.0000,  0.0000)
  48 H      7.728224    2.503489   -0.084408    ( 0.0000,  0.0000,  0.0000)
  49 H      7.552282    0.913322    0.315294    ( 0.0000,  0.0000,  0.0000)
  50 H      2.040992    5.755806    6.484645    ( 0.0000,  0.0000,  0.0000)
  51 H      0.868657    4.983417    5.646027    ( 0.0000,  0.0000,  0.0000)
  52 H      3.273823    2.399835    1.069944    ( 0.0000,  0.0000,  0.0000)
  53 H      4.388182    3.164253    1.742804    ( 0.0000,  0.0000,  0.0000)
  54 H      6.878866    6.571329    6.371504    ( 0.0000,  0.0000,  0.0000)
  55 H      5.969498    7.676660    5.516069    ( 0.0000,  0.0000,  0.0000)
  56 H      1.024889    1.721065    2.807472    ( 0.0000,  0.0000,  0.0000)
  57 H     -0.112678    1.894892    1.805372    ( 0.0000,  0.0000,  0.0000)
  58 H      7.621623    4.313677    7.681676    ( 0.0000,  0.0000,  0.0000)
  59 H      8.211414    4.633508    9.182210    ( 0.0000,  0.0000,  0.0000)
  60 H      4.909344    3.057469    7.651807    ( 0.0000,  0.0000,  0.0000)
  61 H      4.607185    1.652588    8.251151    ( 0.0000,  0.0000,  0.0000)
  62 H      1.217434    9.572318    6.459657    ( 0.0000,  0.0000,  0.0000)
  63 H      2.648419   10.441975    6.798738    ( 0.0000,  0.0000,  0.0000)
  64 H      0.364518    5.884175    1.574791    ( 0.0000,  0.0000,  0.0000)
  65 H     -1.186098    6.181661    1.756148    ( 0.0000,  0.0000,  0.0000)
  66 H      4.533186    5.479958    1.328235    ( 0.0000,  0.0000,  0.0000)
  67 H      4.165858    4.980874    2.865681    ( 0.0000,  0.0000,  0.0000)
  68 H      8.031364    3.864746    5.549109    ( 0.0000,  0.0000,  0.0000)
  69 H      7.806834    5.014765    4.562847    ( 0.0000,  0.0000,  0.0000)
  70 H     -0.568237    9.703345    7.616449    ( 0.0000,  0.0000,  0.0000)
  71 H     -0.923834    8.736953    6.245191    ( 0.0000,  0.0000,  0.0000)
  72 Na     2.094366   -0.049405    0.033786    ( 0.0000,  0.0000,  0.0000)

Unit cell:
           periodic     x           y           z      points  spacing
  1. axis:    yes    8.956370    0.000000    0.000000    44     0.2036
  2. axis:    yes    0.000000    8.956370    0.000000    44     0.2036
  3. axis:    yes    0.000000    0.000000    8.956370    44     0.2036

  Lengths:   8.956370   8.956370   8.956370
  Angles:   90.000000  90.000000  90.000000

Effective grid spacing dv^(1/3) = 0.2036

                     log10-error:    total        iterations:
           time      wfs    density  energy       fermi  poisson
iter:   1  11:06:51          +inf  -332.541912    1      1      
iter:   2  11:06:52         -2.60  -332.538761    1      1      
iter:   3  11:06:53         -2.64  -332.528081    1      1      
iter:   4  11:06:54         -2.89  -332.526449    1      1      
iter:   5  11:06:55         -3.49  -332.526429    1      1      
iter:   6  11:06:56         -3.55  -332.526385    1      1      
iter:   7  11:06:57         -3.98  -332.526379    1      1      
iter:   8  11:06:57         -4.55  -332.526379    0      1      

Converged after 8 iterations.

Dipole moment: (18.517058, -2.768186, 28.258864) |e|*Ang

Energy contributions relative to reference atoms: (reference = -53998.593513)

Kinetic:       +278.491538
Potential:     -319.514052
External:        +0.000000
XC:            -301.004930
Entropy (-ST):   -0.000000
Local:           +9.501065
--------------------------
Free energy:   -332.526379
Extrapolated:  -332.526379

Fermi level: -0.56762

 Band  Eigenvalues  Occupancy
    0    -26.70375    2.00000
    1    -26.69363    2.00000
    2    -26.65732    2.00000
    3    -23.01133    2.00000
    4    -22.04302    2.00000
    5    -21.95029    2.00000
    6    -21.69270    2.00000
    7    -21.61963    2.00000
    8    -21.50091    2.00000
    9    -21.41405    2.00000
   10    -21.29282    2.00000
   11    -21.22091    2.00000
   12    -21.19650    2.00000
   13    -21.06886    2.00000
   14    -21.00595    2.00000
   15    -20.89109    2.00000
   16    -20.69813    2.00000
   17    -20.62252    2.00000
   18    -20.52997    2.00000
   19    -20.48255    2.00000
   20    -20.40539    2.00000
   21    -20.32945    2.00000
   22    -20.14669    2.00000
   23    -20.10462    2.00000
   24    -20.02591    2.00000
   25    -19.61591    2.00000
   26    -19.49492    2.00000
   27    -10.81348    2.00000
   28    -10.18681    2.00000
   29     -9.91652    2.00000
   30     -9.86781    2.00000
   31     -9.53583    2.00000
   32     -9.48391    2.00000
   33     -9.43749    2.00000
   34     -9.41580    2.00000
   35     -9.32275    2.00000
   36     -9.27577    2.00000
   37     -9.24547    2.00000
   38     -9.09183    2.00000
   39     -9.01683    2.00000
   40     -8.97476    2.00000
   41     -8.91785    2.00000
   42     -8.77420    2.00000
   43     -8.69025    2.00000
   44     -8.62131    2.00000
   45     -8.56264    2.00000
   46     -8.23321    2.00000
   47     -8.16898    2.00000
   48     -8.06775    2.00000
   49     -7.92001    2.00000
   50     -7.70974    2.00000
   51     -7.51711    2.00000
   52     -7.10306    2.00000
   53     -7.04767    2.00000
   54     -6.68474    2.00000
   55     -6.50396    2.00000
   56     -6.39232    2.00000
   57     -6.33699    2.00000
   58     -6.13313    2.00000
   59     -5.93795    2.00000
   60     -5.88111    2.00000
   61     -5.79186    2.00000
   62     -5.65248    2.00000
   63     -5.42430    2.00000
   64     -5.39732    2.00000
   65     -5.33945    2.00000
   66     -5.21670    2.00000
   67     -5.13579    2.00000
   68     -4.94537    2.00000
   69     -4.85684    2.00000
   70     -4.67851    2.00000
   71     -4.44272    2.00000
   72     -4.37505    2.00000
   73     -4.23885    2.00000
   74     -4.16558    2.00000
   75     -4.15366    2.00000
   76     -4.10015    2.00000
   77     -3.93864    2.00000
   78     -3.78664    2.00000
   79     -3.74495    2.00000
   80     -3.61604    2.00000
   81     -3.54988    2.00000
   82     -3.54554    2.00000
   83     -3.43270    2.00000
   84     -3.37470    2.00000
   85     -3.31798    2.00000
   86     -3.28878    2.00000
   87     -3.13103    2.00000
   88     -3.07290    2.00000
   89     -3.01719    2.00000
   90     -2.97702    2.00000
   91     -2.91474    2.00000
   92     -2.82758    2.00000
   93     -2.80708    2.00000
   94     -2.68669    2.00000
   95     -2.65634    2.00000
   96     -2.62840    2.00000
   97     -2.50352    2.00000
   98     -2.23016    2.00000
   99      1.08393    0.00000
  100      3.17599    0.00000
  101      3.44296    0.00000
  102      3.60047    0.00000
  103      3.82621    0.00000
  104      4.34171    0.00000
  105      4.67231    0.00000
  106      5.04990    0.00000
  107      5.33327    0.00000
  108      5.62112    0.00000
  109      5.81943    0.00000
  110      5.85759    0.00000
  111      6.18808    0.00000
  112      6.33110    0.00000
  113      6.48224    0.00000
  114      6.51091    0.00000
  115      6.59889    0.00000
  116      6.74833    0.00000
  117      6.96999    0.00000
  118      7.17239    0.00000
  119      7.46671    0.00000
  120      7.65966    0.00000
  121      7.86176    0.00000
  122      7.96748    0.00000

Gap: 3.314 eV
Transition (v -> c):
  (s=0, k=0, n=98, [0.00, 0.00, 0.00]) -> (s=0, k=0, n=99, [0.00, 0.00, 0.00])

Forces in eV/Ang:
  0 O    -0.41687   -0.82860    1.57709
  1 O    -1.29003   -0.37219    0.15757
  2 O    -0.41981   -0.18358    0.25726
  3 O     0.61556    0.73688   -0.97787
  4 O    -0.95444    1.15428   -1.51406
  5 O     0.07144    0.50165   -0.95700
  6 O    -0.04461   -0.24770    0.42409
  7 O     0.83050    0.65426   -0.57079
  8 O    -0.05426    0.22318   -0.30433
  9 O     1.50060   -1.34492    2.07963
 10 O    -0.72745   -0.74654   -0.21889
 11 O     1.43314   -0.47714   -0.09517
 12 O    -0.74675   -0.58531   -0.62747
 13 O    -0.71370   -0.26373    0.20136
 14 O    -0.51873   -0.17243   -0.37918
 15 O     0.46519    0.17799    0.68858
 16 O     0.68838   -0.39978   -0.02328
 17 O    -0.42599   -0.68837   -2.57959
 18 O    -0.14508   -1.85704    0.70984
 19 O    -0.69281    0.38831   -0.26656
 20 O    -0.02785    0.33499    0.38738
 21 O     0.18691   -0.22480    0.04483
 22 O    -0.48919   -0.37845    0.28528
 23 O     0.73517   -0.43441   -0.03849
 24 H     0.72414    0.64285   -1.27776
 25 H    -0.55178    0.47570   -0.26467
 26 H     0.05447   -0.14799    0.45279
 27 H     0.66101    0.51012   -0.68414
 28 H     0.40367   -0.28192   -0.37905
 29 H     0.36549    0.39447    0.31362
 30 H    -0.83751   -0.27124    0.51976
 31 H     0.72240   -0.35149    0.46547
 32 H    -0.24416   -0.51905    1.19697
 33 H     0.56141   -1.14103    0.64101
 34 H    -0.31865    0.47484    1.45040
 35 H     0.29985   -0.96384   -0.78159
 36 H     0.99788   -0.63497   -0.09032
 37 H    -0.47696    0.22453   -0.64627
 38 H     0.39795   -0.64363    0.37765
 39 H     0.27929   -0.36186   -0.10120
 40 H    -0.09429   -0.13186    0.02489
 41 H    -0.16127   -0.53557    0.11222
 42 H    -0.06298    1.34862   -1.53715
 43 H    -0.53227   -1.23181   -0.02959
 44 H     0.10338    1.10817   -0.05834
 45 H     0.41179    0.18832   -0.20936
 46 H    -0.79045    0.96586    0.86318
 47 H    -0.62015   -0.49297   -0.53208
 48 H     1.62622   -0.53568    0.83402
 49 H    -0.17746    0.23513   -0.02843
 50 H    -0.09120   -0.10471   -0.22440
 51 H     0.56310    0.44691   -0.13421
 52 H     0.08395    0.14788    0.17204
 53 H     0.16238   -0.03563    0.23574
 54 H     0.00724    0.54656   -0.29101
 55 H     0.36231   -0.34266    0.36204
 56 H     0.13872    0.38845    0.50692
 57 H    -0.78795    0.51848   -0.64540
 58 H     0.37972   -0.12030    1.52156
 59 H    -0.36809    1.60987    0.84861
 60 H    -0.24973    1.11192   -0.02841
 61 H    -0.31637    0.46897   -0.61484
 62 H    -0.48269    0.98537   -0.34464
 63 H     0.05141    0.62238   -0.04396
 64 H    -0.46343   -0.15744   -0.03388
 65 H     0.25525   -0.24814   -0.14359
 66 H    -0.47628    0.06554   -0.24602
 67 H    -0.20227   -0.23040   -0.11196
 68 H     0.35613    0.22642   -0.53604
 69 H    -0.06833    0.68072    0.16922
 70 H    -0.30811    0.02328   -0.51637
 71 H    -0.15507    0.14445    0.99151
 72 Na   -0.00991   -0.08704    0.28980

System changes: positions 

Initializing position-dependent things.

Density initialized from wave functions
       .--------------O------.  
      /|                     |  
     / |    H O       H      |  
    /  |     HO            H |  
   /  H| O      H     HO     |  
  /    | HH      O   HHH     |  
 *     |     H H HO          |  
 |    H| O      H     H  O   |  
 |     | H  H O     H OHH    |  
 |  H  OH     HHO H  O H     |  
 |     |       H   H  O      |  
 |    H.OH--Na--O-----HHH----.  
 | O H/   O     H         O /   
 |   /     H  H            /    
 |  /      HO           H /     
 | /                     /      
 |/                 H O /       
 *---------------------*        

Positions:
   0 O      4.068165    4.983099    4.424816    ( 0.0000,  0.0000,  0.0000)
   1 O      4.968394    7.576248    4.528075    ( 0.0000,  0.0000,  0.0000)
   2 O      1.413368    5.064547    2.527157    ( 0.0000,  0.0000,  0.0000)
   3 O      5.205106    2.690308    4.947421    ( 0.0000,  0.0000,  0.0000)
   4 O      7.856676    2.396412    4.795026    ( 0.0000,  0.0000,  0.0000)
   5 O      5.468280    4.557901    7.477971    ( 0.0000,  0.0000,  0.0000)
   6 O      3.148259    7.858395    7.073165    ( 0.0000,  0.0000,  0.0000)
   7 O      6.560240    5.919364    3.320946    ( 0.0000,  0.0000,  0.0000)
   8 O      6.218456   -0.009919    8.753897    ( 0.0000,  0.0000,  0.0000)
   9 O      3.682179    6.160331    8.712021    ( 0.0000,  0.0000,  0.0000)
  10 O      3.397663    9.317068    3.681552    ( 0.0000,  0.0000,  0.0000)
  11 O      1.978983    4.078806    8.387269    ( 0.0000,  0.0000,  0.0000)
  12 O      8.262695    1.633448    0.321827    ( 0.0000,  0.0000,  0.0000)
  13 O      1.868347    5.304818    5.621494    ( 0.0000,  0.0000,  0.0000)
  14 O      4.064054    2.197276    1.642562    ( 0.0000,  0.0000,  0.0000)
  15 O      6.702156    7.556159    6.278153    ( 0.0000,  0.0000,  0.0000)
  16 O      0.275236    2.341879    2.631000    ( 0.0000,  0.0000,  0.0000)
  17 O      8.074281    3.920226    8.515399    ( 0.0000,  0.0000,  0.0000)
  18 O      4.221113    2.317280    7.581662    ( 0.0000,  0.0000,  0.0000)
  19 O      2.177106    9.836102    6.171474    ( 0.0000,  0.0000,  0.0000)
  20 O     -0.488258    6.064815    1.022280    ( 0.0000,  0.0000,  0.0000)
  21 O      4.670368    4.760648    1.987812    ( 0.0000,  0.0000,  0.0000)
  22 O      8.262563    4.860274    5.445305    ( 0.0000,  0.0000,  0.0000)
  23 O     -0.388784    9.533865    6.630019    ( 0.0000,  0.0000,  0.0000)
  24 H      3.214215    4.780768    5.048792    ( 0.0000,  0.0000,  0.0000)
  25 H      4.687713    4.152766    4.607801    ( 0.0000,  0.0000,  0.0000)
  26 H      4.334879    8.301510    4.104770    ( 0.0000,  0.0000,  0.0000)
  27 H      4.441836    6.704520    4.711899    ( 0.0000,  0.0000,  0.0000)
  28 H      0.778374    4.300827    2.660786    ( 0.0000,  0.0000,  0.0000)
  29 H      1.376452    5.432903    3.445229    ( 0.0000,  0.0000,  0.0000)
  30 H      6.230418    2.478125    4.900469    ( 0.0000,  0.0000,  0.0000)
  31 H      4.664596    2.298288    5.656865    ( 0.0000,  0.0000,  0.0000)
  32 H      8.380036    2.412182    3.855642    ( 0.0000,  0.0000,  0.0000)
  33 H      8.269510    1.800721    5.452815    ( 0.0000,  0.0000,  0.0000)
  34 H      5.415284    4.520100    6.447720    ( 0.0000,  0.0000,  0.0000)
  35 H      4.849983    5.322769    7.876170    ( 0.0000,  0.0000,  0.0000)
  36 H      3.882161    7.967457    6.438528    ( 0.0000,  0.0000,  0.0000)
  37 H      2.660048    8.676467    6.733633    ( 0.0000,  0.0000,  0.0000)
  38 H      6.049485    6.784640    3.490567    ( 0.0000,  0.0000,  0.0000)
  39 H      5.869671    5.428038    2.767463    ( 0.0000,  0.0000,  0.0000)
  40 H      6.390183   -0.602209    7.936950    ( 0.0000,  0.0000,  0.0000)
  41 H      6.351341   -0.581095    9.552415    ( 0.0000,  0.0000,  0.0000)
  42 H      3.298660    6.902660    8.247991    ( 0.0000,  0.0000,  0.0000)
  43 H      2.922949    5.560551    8.865334    ( 0.0000,  0.0000,  0.0000)
  44 H      3.736515    9.940556    3.007171    ( 0.0000,  0.0000,  0.0000)
  45 H      2.850507    9.726932    4.399787    ( 0.0000,  0.0000,  0.0000)
  46 H      2.410751    3.428745    7.736265    ( 0.0000,  0.0000,  0.0000)
  47 H      0.996469    4.005700    8.409719    ( 0.0000,  0.0000,  0.0000)
  48 H      7.741704    2.496286   -0.100947    ( 0.0000,  0.0000,  0.0000)
  49 H      7.547982    0.919426    0.316757    ( 0.0000,  0.0000,  0.0000)
  50 H      2.052767    5.763706    6.479430    ( 0.0000,  0.0000,  0.0000)
  51 H      0.869104    4.981537    5.659021    ( 0.0000,  0.0000,  0.0000)
  52 H      3.263501    2.399699    1.080307    ( 0.0000,  0.0000,  0.0000)
  53 H      4.398361    3.145984    1.746732    ( 0.0000,  0.0000,  0.0000)
  54 H      6.879230    6.564547    6.368074    ( 0.0000,  0.0000,  0.0000)
  55 H      5.972450    7.672742    5.511987    ( 0.0000,  0.0000,  0.0000)
  56 H      1.021532    1.724446    2.807812    ( 0.0000,  0.0000,  0.0000)
  57 H     -0.117396    1.894790    1.796174    ( 0.0000,  0.0000,  0.0000)
  58 H      7.622856    4.323658    7.679265    ( 0.0000,  0.0000,  0.0000)
  59 H      8.199353    4.626910    9.181829    ( 0.0000,  0.0000,  0.0000)
  60 H      4.903375    3.054076    7.642076    ( 0.0000,  0.0000,  0.0000)
  61 H      4.617578    1.649900    8.257505    ( 0.0000,  0.0000,  0.0000)
  62 H      1.203434    9.568599    6.444129    ( 0.0000,  0.0000,  0.0000)
  63 H      2.659597   10.432601    6.792440    ( 0.0000,  0.0000,  0.0000)
  64 H      0.369970    5.871352    1.584790    ( 0.0000,  0.0000,  0.0000)
  65 H     -1.195126    6.174582    1.755582    ( 0.0000,  0.0000,  0.0000)
  66 H      4.522328    5.489580    1.339217    ( 0.0000,  0.0000,  0.0000)
  67 H      4.160356    4.988822    2.869737    ( 0.0000,  0.0000,  0.0000)
  68 H      8.039416    3.870268    5.543312    ( 0.0000,  0.0000,  0.0000)
  69 H      7.806761    5.016216    4.558749    ( 0.0000,  0.0000,  0.0000)
  70 H     -0.582461    9.715020    7.618028    ( 0.0000,  0.0000,  0.0000)
  71 H     -0.933820    8.743383    6.249737    ( 0.0000,  0.0000,  0.0000)
  72 Na     2.094404   -0.049442    0.033957    ( 0.0000,  0.0000,  0.0000)

Unit cell:
           periodic     x           y           z      points  spacing
  1. axis:    yes    8.956370    0.000000    0.000000    44     0.2036
  2. axis:    yes    0.000000    8.956370    0.000000    44     0.2036
  3. axis:    yes    0.000000    0.000000    8.956370    44     0.2036

  Lengths:   8.956370   8.956370   8.956370
  Angles:   90.000000  90.000000  90.000000

Effective grid spacing dv^(1/3) = 0.2036

                     log10-error:    total        iterations:
           time      wfs    density  energy       fermi  poisson
iter:   1  11:07:01          +inf  -332.499718    1      1      
iter:   2  11:07:02         -2.62  -332.497079    1      1      
iter:   3  11:07:03         -2.65  -332.487996    1      1      
iter:   4  11:07:04         -2.91  -332.486562    1      1      
iter:   5  11:07:05         -3.52  -332.486539    1      1      
iter:   6  11:07:06         -3.59  -332.486500    1      1      
iter:   7  11:07:06         -4.00  -332.486495    1      1      

Converged after 7 iterations.

Dipole moment: (18.706175, -2.739588, 28.737795) |e|*Ang

Energy contributions relative to reference atoms: (reference = -53998.593513)

Kinetic:       +278.281620
Potential:     -319.348107
External:        +0.000000
XC:            -300.925333
Entropy (-ST):   -0.000000
Local:           +9.505325
--------------------------
Free energy:   -332.486495
Extrapolated:  -332.486495

Fermi level: -0.56908

 Band  Eigenvalues  Occupancy
    0    -26.69587    2.00000
    1    -26.68702    2.00000
    2    -26.65067    2.00000
    3    -22.98037    2.00000
    4    -22.06574    2.00000
    5    -21.95998    2.00000
    6    -21.72579    2.00000
    7    -21.68504    2.00000
    8    -21.46343    2.00000
    9    -21.39959    2.00000
   10    -21.29306    2.00000
   11    -21.21546    2.00000
   12    -21.20151    2.00000
   13    -21.06404    2.00000
   14    -20.99457    2.00000
   15    -20.91188    2.00000
   16    -20.70558    2.00000
   17    -20.62424    2.00000
   18    -20.55377    2.00000
   19    -20.49652    2.00000
   20    -20.40842    2.00000
   21    -20.25202    2.00000
   22    -20.12606    2.00000
   23    -20.04249    2.00000
   24    -19.96985    2.00000
   25    -19.63775    2.00000
   26    -19.50732    2.00000
   27    -10.85894    2.00000
   28    -10.17220    2.00000
   29    -10.01861    2.00000
   30     -9.88944    2.00000
   31     -9.52877    2.00000
   32     -9.46821    2.00000
   33     -9.42295    2.00000
   34     -9.38494    2.00000
   35     -9.33386    2.00000
   36     -9.28567    2.00000
   37     -9.22078    2.00000
   38     -9.05109    2.00000
   39     -9.02084    2.00000
   40     -8.93552    2.00000
   41     -8.91748    2.00000
   42     -8.75584    2.00000
   43     -8.69000    2.00000
   44     -8.59053    2.00000
   45     -8.53656    2.00000
   46     -8.29170    2.00000
   47     -8.20068    2.00000
   48     -7.99148    2.00000
   49     -7.90767    2.00000
   50     -7.67856    2.00000
   51     -7.50363    2.00000
   52     -7.12173    2.00000
   53     -7.03175    2.00000
   54     -6.69465    2.00000
   55     -6.51269    2.00000
   56     -6.35758    2.00000
   57     -6.33472    2.00000
   58     -6.11633    2.00000
   59     -5.92232    2.00000
   60     -5.87741    2.00000
   61     -5.78958    2.00000
   62     -5.64901    2.00000
   63     -5.44638    2.00000
   64     -5.40303    2.00000
   65     -5.33255    2.00000
   66     -5.22073    2.00000
   67     -5.13637    2.00000
   68     -4.95636    2.00000
   69     -4.84503    2.00000
   70     -4.69161    2.00000
   71     -4.44091    2.00000
   72     -4.37029    2.00000
   73     -4.24748    2.00000
   74     -4.17453    2.00000
   75     -4.13201    2.00000
   76     -4.10617    2.00000
   77     -3.95887    2.00000
   78     -3.83106    2.00000
   79     -3.73174    2.00000
   80     -3.65368    2.00000
   81     -3.56190    2.00000
   82     -3.54104    2.00000
   83     -3.44050    2.00000
   84     -3.37410    2.00000
   85     -3.31798    2.00000
   86     -3.28586    2.00000
   87     -3.12703    2.00000
   88     -3.06206    2.00000
   89     -3.00977    2.00000
   90     -2.95618    2.00000
   91     -2.90894    2.00000
   92     -2.82557    2.00000
   93     -2.75963    2.00000
   94     -2.66912    2.00000
   95     -2.64668    2.00000
   96     -2.61223    2.00000
   97     -2.48376    2.00000
   98     -2.24500    2.00000
   99      1.09186    0.00000
  100      3.16523    0.00000
  101      3.46514    0.00000
  102      3.61303    0.00000
  103      3.81555    0.00000
  104      4.31599    0.00000
  105      4.68046    0.00000
  106      5.06352    0.00000
  107      5.32540    0.00000
  108      5.61253    0.00000
  109      5.83013    0.00000
  110      5.87624    0.00000
  111      6.18532    0.00000
  112      6.34031    0.00000
  113      6.47820    0.00000
  114      6.51602    0.00000
  115      6.59357    0.00000
  116      6.74072    0.00000
  117      6.97068    0.00000
  118      7.18020    0.00000
  119      7.44174    0.00000
  120      7.65561    0.00000
  121      7.86238    0.00000
  122      7.95951    0.00000

Gap: 3.337 eV
Transition (v -> c):
  (s=0, k=0, n=98, [0.00, 0.00, 0.00]) -> (s=0, k=0, n=99, [0.00, 0.00, 0.00])

Forces in eV/Ang:
  0 O    -0.59619   -0.78986    1.59026
  1 O    -1.07423   -0.25714    0.09632
  2 O    -0.47774   -0.21202    0.39028
  3 O     1.01804    0.94802   -1.35820
  4 O    -0.61755    0.84195   -1.37622
  5 O    -0.02084    0.63441   -1.08419
  6 O    -0.21297   -0.35070    0.61599
  7 O     0.77781    0.78083   -0.52809
  8 O     0.01406   -0.11943   -0.08568
  9 O     1.55154   -1.34729    2.11799
 10 O    -0.75482   -1.25879   -0.02204
 11 O     1.35510   -0.39642   -0.01745
 12 O    -0.67973   -0.41803   -0.72644
 13 O    -0.77994   -0.31923    0.15809
 14 O    -0.78240   -0.71524   -0.49091
 15 O     0.43565   -0.15190    0.63309
 16 O     0.32834   -0.26695   -0.20060
 17 O    -0.50879   -0.89906   -2.94983
 18 O    -0.25365   -2.35611    0.92262
 19 O    -0.90052    0.15789   -0.53634
 20 O     0.09701    0.29002    0.69573
 21 O     0.05334   -0.06978    0.31196
 22 O    -0.42337   -0.14604    0.23338
 23 O     0.67645   -0.32797    0.23032
 24 H     0.84190    0.75732   -1.31606
 25 H    -0.51103    0.36558   -0.24255
 26 H     0.00248   -0.12999    0.43401
 27 H     0.52053    0.32938   -0.57905
 28 H     0.42964   -0.25047   -0.42688
 29 H     0.38517    0.39675    0.22594
 30 H    -0.94087   -0.25689    0.51703
 31 H     0.48359   -0.54827    0.81788
 32 H    -0.38205   -0.46743    1.27450
 33 H     0.34523   -0.86300    0.38091
 34 H    -0.28392    0.47695    1.59481
 35 H     0.35134   -1.08234   -0.81997
 36 H     1.20073   -0.59396   -0.25893
 37 H    -0.50750    0.28877   -0.64683
 38 H     0.48587   -0.64231    0.40802
 39 H     0.22509   -0.49988   -0.18758
 40 H    -0.10914   -0.04605    0.19433
 41 H    -0.21133   -0.27133   -0.29307
 42 H    -0.10479    1.45577   -1.58845
 43 H    -0.55707   -1.29094   -0.02434
 44 H     0.28085    1.48978   -0.40880
 45 H     0.27742    0.33349   -0.04282
 46 H    -0.69296    0.87061    0.76223
 47 H    -0.64758   -0.46058   -0.50022
 48 H     1.60203   -0.47581    0.91102
 49 H    -0.25389    0.08814   -0.00697
 50 H    -0.10206   -0.10055   -0.18774
 51 H     0.62308    0.49806   -0.16364
 52 H     0.25353    0.20042    0.25118
 53 H     0.24461    0.43799    0.22700
 54 H    -0.02884    0.85885   -0.29134
 55 H     0.38037   -0.30861    0.41447
 56 H     0.37345    0.17029    0.52621
 57 H    -0.66357    0.59697   -0.45007
 58 H     0.40376   -0.22460    1.61888
 59 H    -0.29143    1.83454    1.09002
 60 H    -0.00909    1.31124    0.01455
 61 H    -0.45836    0.72406   -0.84863
 62 H    -0.29308    1.07445   -0.22775
 63 H     0.07727    0.76523    0.14346
 64 H    -0.75594   -0.10553   -0.21611
 65 H     0.42150   -0.25182   -0.26717
 66 H    -0.43876    0.06531   -0.32572
 67 H    -0.06173   -0.36424   -0.28396
 68 H     0.26554    0.00621   -0.49385
 69 H    -0.05868    0.67046    0.20753
 70 H    -0.17890   -0.03357   -0.74113
 71 H    -0.17398    0.06848    0.91275
 72 Na   -0.02179   -0.08707    0.26032

System changes: positions 

Initializing position-dependent things.

Density initialized from wave functions
       .--------------O------.  
      /|                     |  
     / |    H O       H      |  
    /  |     HO            H |  
   /  H| O      H     HO     |  
  /    | HH      O   HHH     |  
 *     |     H H HO          |  
 |    H| O      H     H  O   |  
 |     | H  H O     H OHH    |  
 |  H  OH     HHO H  O H     |  
 |     |       H   H  O      |  
 |    H.OH--Na--O-----HHH----.  
 | O H/   O     H         O /   
 |   /     H  H            /    
 |  /      HO           H /     
 | /                     /      
 |/                 H O /       
 *---------------------*        

Positions:
   0 O      4.065433    4.982135    4.425025    ( 0.0000,  0.0000,  0.0000)
   1 O      4.963857    7.578959    4.528924    ( 0.0000,  0.0000,  0.0000)
   2 O      1.413300    5.065274    2.528357    ( 0.0000,  0.0000,  0.0000)
   3 O      5.204983    2.687931    4.951927    ( 0.0000,  0.0000,  0.0000)
[...]
  10 O      3.418591    9.332945    3.664697    ( 0.0000,  0.0000,  0.0000)
  11 O      1.964147    4.115296    8.368192    ( 0.0000,  0.0000,  0.0000)
  12 O      8.297885    1.558473    0.336291    ( 0.0000,  0.0000,  0.0000)
  13 O      1.870247    5.314909    5.635073    ( 0.0000,  0.0000,  0.0000)
  14 O      4.059271    2.211831    1.656257    ( 0.0000,  0.0000,  0.0000)
  15 O      6.724496    7.578635    6.290417    ( 0.0000,  0.0000,  0.0000)
  16 O      0.311510    2.333219    2.591172    ( 0.0000,  0.0000,  0.0000)
  17 O      8.049084    3.926031    8.504058    ( 0.0000,  0.0000,  0.0000)
  18 O      4.230549    2.314889    7.595120    ( 0.0000,  0.0000,  0.0000)
  19 O      2.140860    9.829800    6.203079    ( 0.0000,  0.0000,  0.0000)
  20 O     -0.492818    6.040344    1.023103    ( 0.0000,  0.0000,  0.0000)
  21 O      4.657142    4.782571    1.978174    ( 0.0000,  0.0000,  0.0000)
  22 O      8.227159    4.878181    5.426827    ( 0.0000,  0.0000,  0.0000)
  23 O     -0.372092    9.516351    6.623073    ( 0.0000,  0.0000,  0.0000)
  24 H      3.209542    4.674815    4.849434    ( 0.0000,  0.0000,  0.0000)
  25 H      4.713079    4.250796    4.525012    ( 0.0000,  0.0000,  0.0000)
  26 H      4.353792    8.360276    4.110351    ( 0.0000,  0.0000,  0.0000)
  27 H      4.439623    6.721153    4.501456    ( 0.0000,  0.0000,  0.0000)
  28 H      0.987733    4.150165    2.623727    ( 0.0000,  0.0000,  0.0000)
  29 H      1.232554    5.469875    3.451464    ( 0.0000,  0.0000,  0.0000)
  30 H      6.140844    2.352494    5.012072    ( 0.0000,  0.0000,  0.0000)
  31 H      4.631251    2.083265    5.578074    ( 0.0000,  0.0000,  0.0000)
  32 H      8.427059    2.298494    3.992919    ( 0.0000,  0.0000,  0.0000)
  33 H      8.320458    1.778384    5.448710    ( 0.0000,  0.0000,  0.0000)
  34 H      5.210231    4.559742    6.529532    ( 0.0000,  0.0000,  0.0000)
  35 H      4.921263    5.259277    7.839396    ( 0.0000,  0.0000,  0.0000)
  36 H      3.973564    7.810596    6.443720    ( 0.0000,  0.0000,  0.0000)
  37 H      2.563171    8.621646    6.573780    ( 0.0000,  0.0000,  0.0000)
  38 H      6.055483    6.766321    3.501518    ( 0.0000,  0.0000,  0.0000)
  39 H      5.893189    5.431408    2.760756    ( 0.0000,  0.0000,  0.0000)
  40 H      6.300332   -0.586231    7.890177    ( 0.0000,  0.0000,  0.0000)
  41 H      6.320130   -0.698462    9.445546    ( 0.0000,  0.0000,  0.0000)
  42 H      3.457596    6.995410    8.179368    ( 0.0000,  0.0000,  0.0000)
  43 H      2.861319    5.544953    8.840539    ( 0.0000,  0.0000,  0.0000)
  44 H      3.744706   10.080461    2.982225    ( 0.0000,  0.0000,  0.0000)
  45 H      2.879930    9.699506    4.427950    ( 0.0000,  0.0000,  0.0000)
  46 H      2.398306    3.450185    7.794621    ( 0.0000,  0.0000,  0.0000)
  47 H      0.959114    3.913283    8.298495    ( 0.0000,  0.0000,  0.0000)
  48 H      8.069039    2.416001   -0.149357    ( 0.0000,  0.0000,  0.0000)
  49 H      7.451629    0.973526    0.331546    ( 0.0000,  0.0000,  0.0000)
  50 H      2.169951    5.844448    6.413698    ( 0.0000,  0.0000,  0.0000)
  51 H      0.933838    5.037707    5.776611    ( 0.0000,  0.0000,  0.0000)
  52 H      3.213563    2.462733    1.236251    ( 0.0000,  0.0000,  0.0000)
  53 H      4.554057    3.120601    1.812961    ( 0.0000,  0.0000,  0.0000)
  54 H      6.899140    6.621665    6.307513    ( 0.0000,  0.0000,  0.0000)
  55 H      6.045395    7.613701    5.524473    ( 0.0000,  0.0000,  0.0000)
  56 H      1.071892    1.736232    2.865607    ( 0.0000,  0.0000,  0.0000)
  57 H     -0.192133    1.992134    1.712647    ( 0.0000,  0.0000,  0.0000)
  58 H      7.642705    4.415924    7.783484    ( 0.0000,  0.0000,  0.0000)
  59 H      8.050214    4.738858    9.273356    ( 0.0000,  0.0000,  0.0000)
  60 H      4.845348    3.199751    7.552248    ( 0.0000,  0.0000,  0.0000)
  61 H      4.668025    1.730867    8.210691    ( 0.0000,  0.0000,  0.0000)
  62 H      1.080626    9.712019    6.295445    ( 0.0000,  0.0000,  0.0000)
  63 H      2.763112   10.444538    6.758129    ( 0.0000,  0.0000,  0.0000)
  64 H      0.280902    5.729024    1.626732    ( 0.0000,  0.0000,  0.0000)
  65 H     -1.214818    6.072862    1.704223    ( 0.0000,  0.0000,  0.0000)
  66 H      4.361109    5.563544    1.396599    ( 0.0000,  0.0000,  0.0000)
  67 H      4.129102    4.976406    2.832898    ( 0.0000,  0.0000,  0.0000)
  68 H      8.134310    3.858023    5.414434    ( 0.0000,  0.0000,  0.0000)
  69 H      7.796705    5.123858    4.556040    ( 0.0000,  0.0000,  0.0000)
  70 H     -0.712020    9.830513    7.500812    ( 0.0000,  0.0000,  0.0000)
  71 H     -1.067572    8.786315    6.384469    ( 0.0000,  0.0000,  0.0000)
  72 Na     2.094570   -0.050482    0.037169    ( 0.0000,  0.0000,  0.0000)

Unit cell:
           periodic     x           y           z      points  spacing
  1. axis:    yes    8.956370    0.000000    0.000000    44     0.2036
  2. axis:    yes    0.000000    8.956370    0.000000    44     0.2036
  3. axis:    yes    0.000000    0.000000    8.956370    44     0.2036

  Lengths:   8.956370   8.956370   8.956370
  Angles:   90.000000  90.000000  90.000000

Effective grid spacing dv^(1/3) = 0.2036

                     log10-error:    total        iterations:
           time      wfs    density  energy       fermi  poisson
iter:   1  11:08:47          +inf  -333.458257    1      1      
iter:   2  11:08:48         -2.56  -333.454738    1      1      
iter:   3  11:08:49         -2.60  -333.442908    1      1      
iter:   4  11:08:50         -2.85  -333.440994    1      1      
iter:   5  11:08:51         -3.47  -333.440964    0      1      
iter:   6  11:08:52         -3.55  -333.440921    0      1      
iter:   7  11:08:53         -3.95  -333.440915    0      1      
iter:   8  11:08:54         -4.54  -333.440915    0      1      

Converged after 8 iterations.

Dipole moment: (20.575876, -1.354791, 29.949775) |e|*Ang

Energy contributions relative to reference atoms: (reference = -53998.593513)

Kinetic:       +282.236588
Potential:     -322.856312
External:        +0.000000
XC:            -302.342289
Entropy (-ST):   -0.000000
Local:           +9.521098
--------------------------
Free energy:   -333.440915
Extrapolated:  -333.440915

Fermi level: -0.47309

 Band  Eigenvalues  Occupancy
    0    -26.28742    2.00000
    1    -26.28426    2.00000
    2    -26.24924    2.00000
    3    -22.55916    2.00000
    4    -22.13176    2.00000
    5    -21.86893    2.00000
    6    -21.78400    2.00000
    7    -21.64889    2.00000
    8    -21.52588    2.00000
    9    -21.35713    2.00000
   10    -21.22929    2.00000
   11    -21.20771    2.00000
   12    -21.15644    2.00000
   13    -21.04425    2.00000
   14    -20.94778    2.00000
   15    -20.86456    2.00000
   16    -20.80177    2.00000
   17    -20.70759    2.00000
   18    -20.69342    2.00000
   19    -20.58521    2.00000
   20    -20.50442    2.00000
   21    -20.43796    2.00000
   22    -20.26181    2.00000
   23    -20.20805    2.00000
   24    -20.04489    2.00000
   25    -19.96510    2.00000
   26    -19.83672    2.00000
   27    -11.01235    2.00000
   28     -9.92920    2.00000
   29     -9.87137    2.00000
   30     -9.72233    2.00000
   31     -9.57354    2.00000
   32     -9.53606    2.00000
   33     -9.51120    2.00000
   34     -9.41732    2.00000
   35     -9.35557    2.00000
   36     -9.32242    2.00000
   37     -9.10007    2.00000
   38     -8.98985    2.00000
   39     -8.93906    2.00000
   40     -8.85822    2.00000
   41     -8.77392    2.00000
   42     -8.73788    2.00000
   43     -8.69831    2.00000
   44     -8.56075    2.00000
   45     -8.42436    2.00000
   46     -8.34044    2.00000
   47     -8.27371    2.00000
   48     -8.13992    2.00000
   49     -7.89706    2.00000
   50     -7.85776    2.00000
   51     -7.58373    2.00000
   52     -7.16360    2.00000
   53     -7.14468    2.00000
   54     -6.88670    2.00000
   55     -6.53696    2.00000
   56     -6.41230    2.00000
   57     -6.31242    2.00000
   58     -6.10375    2.00000
   59     -6.06346    2.00000
   60     -5.88670    2.00000
   61     -5.74256    2.00000
   62     -5.66409    2.00000
   63     -5.56512    2.00000
   64     -5.45382    2.00000
   65     -5.34909    2.00000
   66     -5.27416    2.00000
   67     -5.16077    2.00000
   68     -4.99774    2.00000
   69     -4.85547    2.00000
   70     -4.76938    2.00000
   71     -4.53118    2.00000
   72     -4.49333    2.00000
   73     -4.43672    2.00000
   74     -4.27334    2.00000
   75     -4.14254    2.00000
   76     -4.01964    2.00000
   77     -3.97350    2.00000
   78     -3.84746    2.00000
   79     -3.74837    2.00000
   80     -3.68544    2.00000
   81     -3.65536    2.00000
   82     -3.58500    2.00000
   83     -3.50443    2.00000
   84     -3.49519    2.00000
   85     -3.34909    2.00000
   86     -3.29030    2.00000
   87     -3.18526    2.00000
   88     -3.13166    2.00000
   89     -3.06452    2.00000
   90     -3.04187    2.00000
   91     -2.94699    2.00000
   92     -2.88329    2.00000
   93     -2.82653    2.00000
   94     -2.76595    2.00000
   95     -2.68264    2.00000
   96     -2.50745    2.00000
   97     -2.44208    2.00000
   98     -2.35834    2.00000
   99      1.35697    0.00000
  100      3.27346    0.00000
  101      3.61428    0.00000
  102      3.72056    0.00000
  103      3.98962    0.00000
  104      4.43727    0.00000
  105      4.67809    0.00000
  106      5.28802    0.00000
  107      5.52796    0.00000
  108      5.68692    0.00000
  109      5.75062    0.00000
  110      5.94870    0.00000
  111      6.18180    0.00000
  112      6.46404    0.00000
  113      6.50770    0.00000
  114      6.58439    0.00000
  115      6.68000    0.00000
  116      6.84745    0.00000
  117      6.99095    0.00000
  118      7.21880    0.00000
  119      7.49814    0.00000
  120      7.57494    0.00000
  121      7.79489    0.00000
  122      7.89547    0.00000

Gap: 3.715 eV
Transition (v -> c):
  (s=0, k=0, n=98, [0.00, 0.00, 0.00]) -> (s=0, k=0, n=99, [0.00, 0.00, 0.00])

Forces in eV/Ang:
  0 O     1.58808    1.14318   -0.83117
  1 O     0.25040   -0.62282    0.40269
  2 O    -0.47772   -0.15772    0.51876
  3 O    -1.62726   -0.13199    0.26865
  4 O     0.13474   -0.82113    1.48164
  5 O     1.14975   -0.91637   -0.07133
  6 O     0.84806    0.08616   -1.00257
  7 O     0.62281   -0.91519   -1.22141
  8 O    -0.21370    0.01169   -0.47809
  9 O    -0.68780    0.65076    0.74201
 10 O    -0.28997    1.16052   -1.40954
 11 O    -1.29767   -0.25467    0.56452
 12 O     0.03293   -1.52450    0.12808
 13 O     0.81088    0.11191   -0.26272
 14 O     0.86722   -0.43007    0.60884
 15 O     0.07915    0.92834    0.57742
 16 O     0.43630   -0.09518    0.01588
 17 O     0.93827    0.73516    2.01263
 18 O    -1.01063    1.09832   -1.49779
 19 O    -0.26390    0.65298   -0.53053
 20 O    -0.26928   -0.21613   -0.14218
 21 O    -0.09085    1.03736   -0.16239
 22 O     0.01422   -0.07994    0.39927
 23 O    -0.36984   -0.62166   -0.31576
 24 H    -1.60512   -0.15363    0.84326
 25 H     0.05322   -0.71737    0.24955
 26 H    -0.41472    0.18213   -0.01452
 27 H    -0.09296    0.00098    0.05772
 28 H     0.29165    0.27340   -0.08689
 29 H     0.23304   -0.23480   -0.20616
 30 H     0.81055   -0.31893   -0.03275
 31 H     1.08441    0.80492   -0.46657
 32 H     0.15968    0.26155   -1.23630
 33 H    -0.80277    0.22766   -0.12753
 34 H    -0.06330    0.10935   -1.46781
 35 H    -1.18689    0.78031    1.07685
 36 H    -0.93762   -0.09547    0.69977
 37 H     0.61471   -0.25057    0.20310
 38 H    -0.10365    0.72580    0.50169
 39 H     0.54683   -0.05945    0.23350
 40 H     0.10566    0.10855    0.09119
 41 H    -0.08537   -0.39799    0.36444
 42 H     0.23890   -1.64160    0.32718
 43 H     0.92430    0.27319   -0.59293
 44 H    -0.47283   -0.41751    1.10361
 45 H     0.38734    0.16354   -0.36794
 46 H     0.49326   -0.08342   -0.22438
 47 H     0.60086    0.48418    0.10398
 48 H    -0.26865    1.01421    0.16244
 49 H     0.34823    0.37793   -0.22886
 50 H    -0.11895   -0.03770   -0.02144
 51 H    -1.02094    0.12991    0.01067
 52 H    -0.27743    0.80726   -0.18987
 53 H    -1.02367   -0.57472   -0.36112
 54 H     0.74811   -1.01797    0.23412
 55 H    -0.40752    0.43510   -0.24808
 56 H    -0.66931    0.28142   -0.62481
 57 H     0.72651   -0.11098    0.49443
 58 H    -0.82722    0.42657   -1.37845
 59 H     0.58371   -0.91636   -1.05828
 60 H    -0.70756   -0.54197    0.42635
 61 H     0.91614   -1.04606    1.27516
 62 H     0.74383    0.80006    0.72641
 63 H    -0.95214   -0.12391   -0.34284
 64 H     0.24926   -0.15327   -0.08788
 65 H    -0.43844    0.25588    0.49607
 66 H     0.14200   -0.79507   -0.46064
 67 H    -0.06126   -0.54136    0.15789
 68 H    -0.17440    0.32938   -0.39655
 69 H    -0.16428    0.29992    0.13001
 70 H     0.38880    0.37672    0.48621
 71 H     0.42216   -0.28121   -0.22777
 72 Na   -0.05171   -0.09821    0.06539

System changes: positions 

Initializing position-dependent things.

Density initialized from wave functions
       .--------------O------.  
      /|                     |  
     / |    H O       H      |  
    /  |     HO           H  |  
   /  H| O      HH     O     |  
  /    | HH       O  HHH     |  
 *     |     OHH HO          |  
 |     H O      H     H O    |  
 |     | H  H O     H O H    |  
 |  H  OH     HHO H  OOH     |  
 |     |O     H    H         |  
 |   HH.-H--Na--O-----HHH----.  
 | O H/   O    H          O /   
 |   /     HO H         H  /    
 |  /      H            H /     
 | /                     /      
 |/                 H O /       
 *---------------------*        

Positions:
   0 O      4.029256    4.971323    4.436563    ( 0.0000,  0.0000,  0.0000)
   1 O      4.913097    7.611193    4.539412    ( 0.0000,  0.0000,  0.0000)
   2 O      1.406496    5.072167    2.550311    ( 0.0000,  0.0000,  0.0000)
   3 O      5.211485    2.671691    4.988750    ( 0.0000,  0.0000,  0.0000)
   4 O      7.853284    2.402977    4.796058    ( 0.0000,  0.0000,  0.0000)
   5 O      5.498218    4.566395    7.450516    ( 0.0000,  0.0000,  0.0000)
   6 O      3.149167    7.847337    7.056587    ( 0.0000,  0.0000,  0.0000)
   7 O      6.575305    5.946863    3.356007    ( 0.0000,  0.0000,  0.0000)
   8 O      6.238989   -0.028343    8.738013    ( 0.0000,  0.0000,  0.0000)
   9 O      3.714795    6.113779    8.724022    ( 0.0000,  0.0000,  0.0000)
  10 O      3.420295    9.334126    3.662170    ( 0.0000,  0.0000,  0.0000)
  11 O      1.961748    4.118991    8.367415    ( 0.0000,  0.0000,  0.0000)
  12 O      8.301055    1.550696    0.337373    ( 0.0000,  0.0000,  0.0000)
  13 O      1.870529    5.315707    5.636124    ( 0.0000,  0.0000,  0.0000)
  14 O      4.058658    2.211901    1.657554    ( 0.0000,  0.0000,  0.0000)
  15 O      6.726682    7.580889    6.292004    ( 0.0000,  0.0000,  0.0000)
  16 O      0.314696    2.332383    2.587145    ( 0.0000,  0.0000,  0.0000)
  17 O      8.047419    3.926723    8.503646    ( 0.0000,  0.0000,  0.0000)
  18 O      4.230814    2.314059    7.596073    ( 0.0000,  0.0000,  0.0000)
  19 O      2.136876    9.829441    6.205302    ( 0.0000,  0.0000,  0.0000)
  20 O     -0.493223    6.037974    1.023701    ( 0.0000,  0.0000,  0.0000)
  21 O      4.655663    4.785472    1.977635    ( 0.0000,  0.0000,  0.0000)
  22 O      8.223857    4.880218    5.425348    ( 0.0000,  0.0000,  0.0000)
  23 O     -0.370590    9.514536    6.622713    ( 0.0000,  0.0000,  0.0000)
  24 H      3.203659    4.670912    4.831138    ( 0.0000,  0.0000,  0.0000)
  25 H      4.717633    4.249610    4.519334    ( 0.0000,  0.0000,  0.0000)
  26 H      4.349851    8.368255    4.112122    ( 0.0000,  0.0000,  0.0000)
  27 H      4.434933    6.714316    4.481209    ( 0.0000,  0.0000,  0.0000)
  28 H      1.012612    4.137693    2.616285    ( 0.0000,  0.0000,  0.0000)
  29 H      1.224381    5.471848    3.446341    ( 0.0000,  0.0000,  0.0000)
  30 H      6.133317    2.336791    5.024604    ( 0.0000,  0.0000,  0.0000)
  31 H      4.638819    2.064746    5.573604    ( 0.0000,  0.0000,  0.0000)
  32 H      8.426509    2.289693    4.004436    ( 0.0000,  0.0000,  0.0000)
  33 H      8.312448    1.782933    5.439821    ( 0.0000,  0.0000,  0.0000)
  34 H      5.190244    4.566407    6.528078    ( 0.0000,  0.0000,  0.0000)
  35 H      4.918910    5.253417    7.840909    ( 0.0000,  0.0000,  0.0000)
  36 H      3.979247    7.791872    6.450350    ( 0.0000,  0.0000,  0.0000)
  37 H      2.557454    8.615865    6.557205    ( 0.0000,  0.0000,  0.0000)
  38 H      6.058283    6.770518    3.510257    ( 0.0000,  0.0000,  0.0000)
  39 H      5.900610    5.425165    2.759462    ( 0.0000,  0.0000,  0.0000)
  40 H      6.292391   -0.581771    7.893142    ( 0.0000,  0.0000,  0.0000)
  41 H      6.314386   -0.707175    9.428070    ( 0.0000,  0.0000,  0.0000)
  42 H      3.478095    6.988816    8.171834    ( 0.0000,  0.0000,  0.0000)
  43 H      2.866389    5.542743    8.831433    ( 0.0000,  0.0000,  0.0000)
  44 H      3.743383   10.101461    2.986020    ( 0.0000,  0.0000,  0.0000)
  45 H      2.883658    9.704092    4.432077    ( 0.0000,  0.0000,  0.0000)
  46 H      2.406129    3.444757    7.791147    ( 0.0000,  0.0000,  0.0000)
  47 H      0.960823    3.907650    8.287345    ( 0.0000,  0.0000,  0.0000)
  48 H      8.103492    2.418236   -0.146681    ( 0.0000,  0.0000,  0.0000)
  49 H      7.442252    0.979479    0.331391    ( 0.0000,  0.0000,  0.0000)
  50 H      2.179347    5.851620    6.408028    ( 0.0000,  0.0000,  0.0000)
  51 H      0.934831    5.047388    5.786091    ( 0.0000,  0.0000,  0.0000)
  52 H      3.210666    2.478068    1.251025    ( 0.0000,  0.0000,  0.0000)
  53 H      4.563883    3.125702    1.817405    ( 0.0000,  0.0000,  0.0000)
  54 H      6.907288    6.626067    6.303167    ( 0.0000,  0.0000,  0.0000)
  55 H      6.050958    7.611340    5.526687    ( 0.0000,  0.0000,  0.0000)
  56 H      1.076906    1.736791    2.868679    ( 0.0000,  0.0000,  0.0000)
  57 H     -0.192623    2.005707    1.712184    ( 0.0000,  0.0000,  0.0000)
  58 H      7.636266    4.428432    7.783910    ( 0.0000,  0.0000,  0.0000)
  59 H      8.040151    4.747573    9.275510    ( 0.0000,  0.0000,  0.0000)
  60 H      4.834944    3.217302    7.548019    ( 0.0000,  0.0000,  0.0000)
  61 H      4.675472    1.736544    8.209513    ( 0.0000,  0.0000,  0.0000)
  62 H      1.078217    9.740158    6.289550    ( 0.0000,  0.0000,  0.0000)
  63 H      2.763998   10.450012    6.754270    ( 0.0000,  0.0000,  0.0000)
  64 H      0.265710    5.715655    1.625281    ( 0.0000,  0.0000,  0.0000)
  65 H     -1.214866    6.064465    1.700272    ( 0.0000,  0.0000,  0.0000)
  66 H      4.346075    5.561734    1.395574    ( 0.0000,  0.0000,  0.0000)
  67 H      4.128928    4.965230    2.824735    ( 0.0000,  0.0000,  0.0000)
  68 H      8.141163    3.852281    5.397128    ( 0.0000,  0.0000,  0.0000)
  69 H      7.794317    5.139713    4.559183    ( 0.0000,  0.0000,  0.0000)
  70 H     -0.717843    9.842122    7.485609    ( 0.0000,  0.0000,  0.0000)
  71 H     -1.078549    8.785623    6.397703    ( 0.0000,  0.0000,  0.0000)
  72 Na     2.094557   -0.050637    0.037536    ( 0.0000,  0.0000,  0.0000)

Unit cell:
           periodic     x           y           z      points  spacing
  1. axis:    yes    8.956370    0.000000    0.000000    44     0.2036
  2. axis:    yes    0.000000    8.956370    0.000000    44     0.2036
  3. axis:    yes    0.000000    0.000000    8.956370    44     0.2036

  Lengths:   8.956370   8.956370   8.956370
  Angles:   90.000000  90.000000  90.000000

Effective grid spacing dv^(1/3) = 0.2036

                     log10-error:    total        iterations:
           time      wfs    density  energy       fermi  poisson
iter:   1  11:08:57          +inf  -333.415499    1      1      
