7
Lattice="16.0 0.0 0.0 0.0 16.0 0.0 0.0 0.0 16.0" Properties=species:S:1:pos:R:3:forces:R:3 unique_id="8 a a 6 0 6 7 9 9 b d 4 8 9 6 4 9 5 1 8 4 d 2 1 1 f e 1 8 5 1 c" confid=153 relax_id=154 energy=-5.873470341204818 dipole="0.0003580756450456124 -0.0020640809864203636 0.0020446490113929577" pbc="F F F"
Na       7.94494389       9.46431098       9.83828826      -0.00288472      -0.00030462       0.00069046 
Na       8.04704786       6.12998968      10.75045746      -0.00087040       0.00200104      -0.00288148 
Na      10.91093729       7.70170516       9.84868823      -0.00102522      -0.00427039      -0.00102012 
Na       5.57939902       7.20714919       8.68932527      -0.00098409       0.00014364       0.00571663 
Na       6.91762449       9.44741411       6.54011036      -0.00117710      -0.00022047      -0.00365477 
Na      10.20812472       9.73701408       7.24485137       0.00338288      -0.00009875      -0.00287428 
Na       8.71583121       6.60834114       7.38992209       0.00629302       0.00658860       0.00311331 
