
  ___ ___ ___ _ _ _  
 |   |   |_  | | | | 
 | | | | | . | | | | 
 |__ |  _|___|_____|  19.8.1
 |___|_|             

User:   hallborn@hebbe10-8
Date:   Sat Feb 15 00:00:44 2020
Arch:   x86_64
Pid:    31304
Python: 3.7.2
gpaw:   /apps/Hebbe7/software/MPI/intel/2019.1.144-GCC-8.2.0-2.31.1/impi/2018.4.274/GPAW/19.8.1-Python-3.7.2/lib/python3.7/site-packages/gpaw
_gpaw:  /apps/Hebbe7/software/MPI/intel/2019.1.144-GCC-8.2.0-2.31.1/impi/2018.4.274/GPAW/19.8.1-Python-3.7.2/bin/
        gpaw-python
ase:    /apps/Hebbe7/software/MPI/intel/2019.1.144-GCC-8.2.0-2.31.1/impi/2018.4.274/ASE/3.18.0-Python-3.7.2/lib/python3.7/site-packages/ase (version 3.18.0)
numpy:  /apps/Hebbe7/software/MPI/intel/2019.1.144-GCC-8.2.0-2.31.1/impi/2018.4.274/SciPy-bundle/2019.03/lib/python3.7/site-packages/numpy (version 1.16.2)
scipy:  /apps/Hebbe7/software/MPI/intel/2019.1.144-GCC-8.2.0-2.31.1/impi/2018.4.274/SciPy-bundle/2019.03/lib/python3.7/site-packages/scipy (version 1.2.1)
libxc:  4.3.4
units:  Angstrom and eV
cores:  1

Input parameters:
  mode: lcao
  xc: PBE

System changes: positions, numbers, cell, pbc, initial_charges, initial_magmoms 

Initialize ...

Na-setup:
  name: Sodium
  id: d7ecbc49209718622bcbe287195dca2a
  Z: 11
  valence: 7
  core: 4
  charge: 0.0
  file: /apps/Common/Core/GPAW-setups/0.9.20000/Na.PBE.gz
  compensation charges: gauss, rc=0.37, lmax=2
  cutoffs: 2.17(filt), 2.59(core),
  valence states:
                energy  radius
    3s(1.00)    -2.744   1.201
    2p(6.00)   -28.672   1.217
    3p(0.00)    -0.743   1.217
    *s          24.468   1.201
    *d           0.000   1.238

  Using partial waves for Na as LCAO basis

Reference energy: -26511.662986

Spin-paired calculation

Occupation numbers:
  Fermi-Dirac: width=0.0000 eV

Convergence criteria:
  Maximum total energy change: 0.0005 eV / electron
  Maximum integral of absolute density change: 0.0001 electrons
  Maximum integral of absolute eigenstate change: 4e-08 eV^2
  Maximum number of iterations: 333

Symmetries present (total): 1

  ( 1  0  0)
  ( 0  1  0)
  ( 0  0  1)

1 k-point (Gamma)
1 k-point in the irreducible part of the Brillouin zone
       k-points in crystal coordinates                weights
   0:     0.00000000    0.00000000    0.00000000          1/1

Wave functions: LCAO
  Diagonalizer: Serial LAPACK
  Atomic Correction: dense with blas
  Datatype: float
 

Eigensolver
   LCAO using direct dense diagonalizer 

Densities:
  Coarse grid: 80*80*80 grid
  Fine grid: 160*160*160 grid
  Total Charge: 0.000000 

Density mixing:
  Method: separate
  Backend: pulay
  Linear mixing parameter: 0.25
  Mixing with 3 old densities
  No damping of long wave oscillations 

Hamiltonian:
  XC and Coulomb potentials evaluated on a 160*160*160 grid
  Using the PBE Exchange-Correlation functional
  Interpolation: tri-quintic (5. degree polynomial)
  Poisson solver: FastPoissonSolver using
    6*3+1=19 point O(h^6) finite-difference Laplacian stencil;
    FFT axes: [];
    FST axes: [0, 1, 2].
 

XC parameters: PBE with 2 nearest neighbor stencil

Memory estimate:
  Process memory now: 839.63 MiB
  Calculator: 228.55 MiB
    Density: 148.73 MiB
      Arrays: 99.53 MiB
      Localized functions: 26.63 MiB
      Mixer: 22.57 MiB
    Hamiltonian: 67.06 MiB
      Arrays: 65.10 MiB
      XC: 0.00 MiB
      Poisson: 0.00 MiB
      vbar: 1.96 MiB
    Wavefunctions: 12.77 MiB
      C [qnM]: 0.01 MiB
      S, T [2 x qmm]: 0.03 MiB
      P [aqMi]: 0.00 MiB
      BasisFunctions: 12.73 MiB
      Eigensolver: 0.00 MiB

Total number of cores used: 1

Number of atoms: 6
Number of atomic orbitals: 42
Number of bands in calculation: 30
Bands to converge: occupied states only
Number of valence electrons: 42

... initialized

Initializing position-dependent things.

Density initialized from atomic densities
           .--------------------------------------.  
          /|                                      |  
         / |                                      |  
        /  |                                      |  
       /   |                                      |  
      /    |                                      |  
     /     |                                      |  
    /      |                                      |  
   /       |                                      |  
  /        |                                      |  
 *         |                                      |  
 |         |          Na                          |  
 |         |                                      |  
 |         |       Na      Na                     |  
 |         |                Na                    |  
 |         |                                      |  
 |         |                                      |  
 |         |             Na   Na                  |  
 |         |                                      |  
 |         |                                      |  
 |         .--------------------------------------.  
 |        /                                      /   
 |       /                                      /    
 |      /                                      /     
 |     /                                      /      
 |    /                                      /       
 |   /                                      /        
 |  /                                      /         
 | /                                      /          
 |/                                      /           
 *--------------------------------------*            

Positions:
   0 Na     8.210231    9.489933    8.656516    ( 0.0000,  0.0000,  0.0000)
   1 Na     6.417931    8.101846   10.968460    ( 0.0000,  0.0000,  0.0000)
   2 Na     5.009862    9.947279    8.321395    ( 0.0000,  0.0000,  0.0000)
   3 Na     7.211492    9.790525    5.577356    ( 0.0000,  0.0000,  0.0000)
   4 Na     9.992557    7.848605    6.505352    ( 0.0000,  0.0000,  0.0000)
   5 Na     9.477264    6.754058    9.822530    ( 0.0000,  0.0000,  0.0000)

Unit cell:
           periodic     x           y           z      points  spacing
  1. axis:    no    16.000000    0.000000    0.000000    80     0.2000
  2. axis:    no     0.000000   16.000000    0.000000    80     0.2000
  3. axis:    no     0.000000    0.000000   16.000000    80     0.2000

  Lengths:  16.000000  16.000000  16.000000
  Angles:   90.000000  90.000000  90.000000

Effective grid spacing dv^(1/3) = 0.2000

                     log10-error:    total        iterations:
           time      wfs    density  energy       fermi  poisson
iter:   1  00:00:55          +inf    -3.980957    0      1      
iter:   2  00:00:58         -1.32    -3.784573    0      1      
iter:   3  00:01:02         -1.53    -3.729628    0      1      
iter:   4  00:01:05         -2.00    -3.724574    0      1      
iter:   5  00:01:09         -2.70    -3.724024    0      1      
iter:   6  00:01:12         -3.18    -3.723964    0      1      
iter:   7  00:01:16         -3.54    -3.723949    0      1      
iter:   8  00:01:20         -3.94    -3.723947    0      1      
iter:   9  00:01:23         -4.13    -3.723947    0      1      

Converged after 9 iterations.

Dipole moment: (-0.071106, -0.117585, -0.046161) |e|*Ang

Energy contributions relative to reference atoms: (reference = -26511.662986)

Kinetic:        +20.172679
Potential:      -16.613731
External:        +0.000000
XC:              -7.289628
Entropy (-ST):   +0.000000
Local:           +0.006733
--------------------------
Free energy:     -3.723947
Extrapolated:    -3.723947

Fermi level: -1.86673

 Band  Eigenvalues  Occupancy
    0    -27.47077    2.00000
    1    -27.46990    2.00000
    2    -27.46651    2.00000
    3    -27.45777    2.00000
    4    -27.45478    2.00000
    5    -27.45319    2.00000
    6    -27.45130    2.00000
    7    -27.44956    2.00000
    8    -27.44783    2.00000
    9    -27.44596    2.00000
   10    -27.44040    2.00000
   11    -27.43967    2.00000
   12    -27.42818    2.00000
   13    -27.42775    2.00000
   14    -27.42093    2.00000
   15    -27.37551    2.00000
   16    -27.35535    2.00000
   17    -27.35498    2.00000
   18     -3.72973    2.00000
   19     -2.56421    2.00000
   20     -2.55594    2.00000
   21     -1.17752    0.00000
   22     -1.11658    0.00000
   23     -1.11164    0.00000
   24     -0.51759    0.00000
   25      0.16912    0.00000
   26      0.17224    0.00000
   27      0.48438    0.00000
   28      0.48522    0.00000
   29      0.86789    0.00000

Gap: 1.378 eV
Transition (v -> c):
  (s=0, k=0, n=20, [0.00, 0.00, 0.00]) -> (s=0, k=0, n=21, [0.00, 0.00, 0.00])

Forces in eV/Ang:
  0 Na    0.09249    0.18290    0.06595
  1 Na   -0.09919   -0.06654    0.17477
  2 Na   -0.19338    0.06645   -0.01054
  3 Na   -0.04944    0.05730   -0.19573
  4 Na    0.14397   -0.08292   -0.13247
  5 Na    0.10695   -0.15497    0.09646

System changes: positions 

Initializing position-dependent things.

Density initialized from wave functions
           .--------------------------------------.  
          /|                                      |  
         / |                                      |  
        /  |                                      |  
       /   |                                      |  
      /    |                                      |  
     /     |                                      |  
    /      |                                      |  
   /       |                                      |  
  /        |                                      |  
 *         |                                      |  
 |         |          Na                          |  
 |         |                                      |  
 |         |       Na      Na                     |  
 |         |                Na                    |  
 |         |                                      |  
 |         |                                      |  
 |         |             Na   Na                  |  
 |         |                                      |  
 |         |                                      |  
 |         .--------------------------------------.  
 |        /                                      /   
 |       /                                      /    
 |      /                                      /     
 |     /                                      /      
 |    /                                      /       
 |   /                                      /        
 |  /                                      /         
 | /                                      /          
 |/                                      /           
 *--------------------------------------*            

Positions:
   0 Na     8.211552    9.492546    8.657458    ( 0.0000,  0.0000,  0.0000)
   1 Na     6.416513    8.100895   10.970956    ( 0.0000,  0.0000,  0.0000)
   2 Na     5.007100    9.948229    8.321244    ( 0.0000,  0.0000,  0.0000)
   3 Na     7.210786    9.791344    5.574560    ( 0.0000,  0.0000,  0.0000)
   4 Na     9.994614    7.847421    6.503459    ( 0.0000,  0.0000,  0.0000)
   5 Na     9.478791    6.751844    9.823908    ( 0.0000,  0.0000,  0.0000)

Unit cell:
           periodic     x           y           z      points  spacing
  1. axis:    no    16.000000    0.000000    0.000000    80     0.2000
  2. axis:    no     0.000000   16.000000    0.000000    80     0.2000
  3. axis:    no     0.000000    0.000000   16.000000    80     0.2000

  Lengths:  16.000000  16.000000  16.000000
  Angles:   90.000000  90.000000  90.000000

Effective grid spacing dv^(1/3) = 0.2000

                     log10-error:    total        iterations:
           time      wfs    density  energy       fermi  poisson
iter:   1  00:01:27          +inf    -3.727709    0      1      
iter:   2  00:01:31         -4.05    -3.727708    0      1      
iter:   3  00:01:35         -4.19    -3.727707    0      1      

Converged after 3 iterations.

Dipole moment: (-0.071007, -0.117350, -0.046073) |e|*Ang

Energy contributions relative to reference atoms: (reference = -26511.662986)

Kinetic:        +20.030179
Potential:      -16.499292
External:        +0.000000
XC:              -7.264973
Entropy (-ST):   +0.000000
Local:           +0.006379
--------------------------
Free energy:     -3.727707
Extrapolated:    -3.727707

Fermi level: -1.86630

 Band  Eigenvalues  Occupancy
    0    -27.47148    2.00000
    1    -27.47058    2.00000
    2    -27.46729    2.00000
    3    -27.45873    2.00000
    4    -27.45578    2.00000
    5    -27.45435    2.00000
    6    -27.45244    2.00000
    7    -27.45073    2.00000
    8    -27.44899    2.00000
    9    -27.44710    2.00000
   10    -27.44145    2.00000
   11    -27.44066    2.00000
   12    -27.42927    2.00000
   13    -27.42886    2.00000
   14    -27.42209    2.00000
   15    -27.37667    2.00000
   16    -27.35638    2.00000
   17    -27.35603    2.00000
   18     -3.72667    2.00000
   19     -2.56303    2.00000
   20     -2.55483    2.00000
   21     -1.17776    0.00000
   22     -1.11744    0.00000
   23     -1.11248    0.00000
   24     -0.51565    0.00000
   25      0.16847    0.00000
   26      0.17151    0.00000
   27      0.48196    0.00000
   28      0.48284    0.00000
   29      0.86716    0.00000

Gap: 1.377 eV
Transition (v -> c):
  (s=0, k=0, n=20, [0.00, 0.00, 0.00]) -> (s=0, k=0, n=21, [0.00, 0.00, 0.00])

Forces in eV/Ang:
  0 Na    0.09070    0.17886    0.06434
  1 Na   -0.09628   -0.06484    0.17001
  2 Na   -0.18828    0.06495   -0.01018
  3 Na   -0.04809    0.05599   -0.19059
  4 Na    0.14035   -0.08076   -0.12932
  5 Na    0.10424   -0.15079    0.09396

System changes: positions 

Initializing position-dependent things.

Density initialized from wave functions
           .--------------------------------------.  
          /|                                      |  
         / |                                      |  
        /  |                                      |  
       /   |                                      |  
      /    |                                      |  
     /     |                                      |  
    /      |                                      |  
   /       |                                      |  
  /        |                                      |  
 *         |                                      |  
 |         |          Na                          |  
 |         |                                      |  
 |         |       Na      NNa                    |  
 |         |                                      |  
 |         |                                      |  
 |         |                                      |  
 |         |             Na   Na                  |  
 |         |                                      |  
 |         |                                      |  
 |         .--------------------------------------.  
 |        /                                      /   
 |       /                                      /    
 |      /                                      /     
 |     /                                      /      
 |    /                                      /       
 |   /                                      /        
 |  /                                      /         
 | /                                      /          
 |/                                      /           
 *--------------------------------------*            

Positions:
   0 Na     8.228779    9.526515    8.669678    ( 0.0000,  0.0000,  0.0000)
   1 Na     6.398227    8.088581   11.003246    ( 0.0000,  0.0000,  0.0000)
   2 Na     4.971340    9.960565    8.319312    ( 0.0000,  0.0000,  0.0000)
   3 Na     7.201652    9.801977    5.538362    ( 0.0000,  0.0000,  0.0000)
   4 Na    10.021269    7.832083    6.478898    ( 0.0000,  0.0000,  0.0000)
   5 Na     9.498589    6.723204    9.841754    ( 0.0000,  0.0000,  0.0000)

Unit cell:
           periodic     x           y           z      points  spacing
  1. axis:    no    16.000000    0.000000    0.000000    80     0.2000
  2. axis:    no     0.000000   16.000000    0.000000    80     0.2000
  3. axis:    no     0.000000    0.000000   16.000000    80     0.2000

  Lengths:  16.000000  16.000000  16.000000
  Angles:   90.000000  90.000000  90.000000

Effective grid spacing dv^(1/3) = 0.2000

                     log10-error:    total        iterations:
           time      wfs    density  energy       fermi  poisson
iter:   1  00:01:39          +inf    -3.768107    0      1      
iter:   2  00:01:42         -2.93    -3.767947    0      1      
iter:   3  00:01:46         -3.06    -3.767785    0      1      
iter:   4  00:01:49         -3.71    -3.767780    0      1      
iter:   5  00:01:53         -4.46    -3.767780    0      1      

Converged after 5 iterations.

Dipole moment: (-0.068111, -0.112248, -0.043961) |e|*Ang

Energy contributions relative to reference atoms: (reference = -26511.662986)

Kinetic:        +17.983600
Potential:      -14.833337
External:        +0.000000
XC:              -6.923347
Entropy (-ST):   +0.000000
Local:           +0.005304
--------------------------
Free energy:     -3.767780
Extrapolated:    -3.767780

Fermi level: -1.86186

 Band  Eigenvalues  Occupancy
    0    -27.48334    2.00000
    1    -27.48210    2.00000
    2    -27.47948    2.00000
    3    -27.47329    2.00000
    4    -27.47123    2.00000
    5    -27.47049    2.00000
    6    -27.46888    2.00000
    7    -27.46746    2.00000
    8    -27.46534    2.00000
    9    -27.46335    2.00000
   10    -27.45672    2.00000
   11    -27.45544    2.00000
   12    -27.44546    2.00000
   13    -27.44517    2.00000
   14    -27.43904    2.00000
   15    -27.40177    2.00000
   16    -27.37993    2.00000
   17    -27.37970    2.00000
   18     -3.68778    2.00000
   19     -2.54805    2.00000
   20     -2.54077    2.00000
   21     -1.18294    0.00000
   22     -1.12899    0.00000
   23     -1.12372    0.00000
   24     -0.49009    0.00000
   25      0.15924    0.00000
   26      0.16135    0.00000
   27      0.45120    0.00000
   28      0.45248    0.00000
   29      0.85804    0.00000

Gap: 1.358 eV
Transition (v -> c):
  (s=0, k=0, n=20, [0.00, 0.00, 0.00]) -> (s=0, k=0, n=21, [0.00, 0.00, 0.00])

Forces in eV/Ang:
  0 Na    0.06174    0.11919    0.03961
  1 Na   -0.06391   -0.04684    0.11548
  2 Na   -0.12811    0.04524   -0.00612
  3 Na   -0.03236    0.03814   -0.12634
  4 Na    0.09514   -0.05657   -0.08533
  5 Na    0.06982   -0.09816    0.05969

System changes: positions 

Initializing position-dependent things.

Density initialized from wave functions
           .--------------------------------------.  
          /|                                      |  
         / |                                      |  
        /  |                                      |  
       /   |                                      |  
      /    |                                      |  
     /     |                                      |  
    /      |                                      |  
   /       |                                      |  
  /        |                                      |  
 *         |                                      |  
 |         |          Na                          |  
 |         |                                      |  
 |         |       Na      NNa                    |  
 |         |                                      |  
 |         |                                      |  
 |         |                                      |  
 |         |             Na   Na                  |  
 |         |                                      |  
 |         |                                      |  
 |         .--------------------------------------.  
 |        /                                      /   
 |       /                                      /    
 |      /                                      /     
 |     /                                      /      
 |    /                                      /       
 |   /                                      /        
 |  /                                      /         
 | /                                      /          
 |/                                      /           
 *--------------------------------------*            

Positions:
   0 Na     8.246037    9.560492    8.681832    ( 0.0000,  0.0000,  0.0000)
   1 Na     6.379942    8.076187   11.035590    ( 0.0000,  0.0000,  0.0000)
   2 Na     4.935515    9.972945    8.317393    ( 0.0000,  0.0000,  0.0000)
   3 Na     7.192510    9.812630    5.502169    ( 0.0000,  0.0000,  0.0000)
   4 Na    10.047965    7.816683    6.454348    ( 0.0000,  0.0000,  0.0000)
   5 Na     9.518398    6.694608    9.859541    ( 0.0000,  0.0000,  0.0000)

Unit cell:
           periodic     x           y           z      points  spacing
  1. axis:    no    16.000000    0.000000    0.000000    80     0.2000
  2. axis:    no     0.000000   16.000000    0.000000    80     0.2000
  3. axis:    no     0.000000    0.000000   16.000000    80     0.2000

  Lengths:  16.000000  16.000000  16.000000
  Angles:   90.000000  90.000000  90.000000

Effective grid spacing dv^(1/3) = 0.2000

                     log10-error:    total        iterations:
           time      wfs    density  energy       fermi  poisson
iter:   1  00:01:57          +inf    -3.792802    0      1      
iter:   2  00:02:01         -2.92    -3.792637    0      1      
iter:   3  00:02:04         -3.05    -3.792468    0      1      
iter:   4  00:02:08         -3.72    -3.792463    0      1      
iter:   5  00:02:11         -4.49    -3.792463    0      1      

Converged after 5 iterations.

Dipole moment: (-0.065253, -0.106737, -0.041718) |e|*Ang

Energy contributions relative to reference atoms: (reference = -26511.662986)

Kinetic:        +16.052583
Potential:      -13.255697
External:        +0.000000
XC:              -6.593944
Entropy (-ST):   +0.000000
Local:           +0.004595
--------------------------
Free energy:     -3.792463
Extrapolated:    -3.792463

Fermi level: -1.85913

 Band  Eigenvalues  Occupancy
    0    -27.49797    2.00000
    1    -27.49647    2.00000
    2    -27.49428    2.00000
    3    -27.49037    2.00000
    4    -27.48979    2.00000
    5    -27.48783    2.00000
    6    -27.48682    2.00000
    7    -27.48588    2.00000
    8    -27.48284    2.00000
    9    -27.48089    2.00000
   10    -27.47372    2.00000
   11    -27.47210    2.00000
   12    -27.46371    2.00000
   13    -27.46295    2.00000
   14    -27.45767    2.00000
   15    -27.43456    2.00000
   16    -27.41134    2.00000
   17    -27.41122    2.00000
   18     -3.65054    2.00000
   19     -2.53372    2.00000
   20     -2.52731    2.00000
   21     -1.19095    0.00000
   22     -1.14086    0.00000
   23     -1.13537    0.00000
   24     -0.46456    0.00000
   25      0.14954    0.00000
   26      0.15099    0.00000
   27      0.42188    0.00000
   28      0.42351    0.00000
   29      0.84948    0.00000

Gap: 1.336 eV
Transition (v -> c):
  (s=0, k=0, n=20, [0.00, 0.00, 0.00]) -> (s=0, k=0, n=21, [0.00, 0.00, 0.00])

Forces in eV/Ang:
  0 Na    0.03496    0.06061    0.01818
  1 Na   -0.03365   -0.02616    0.06285
  2 Na   -0.07274    0.02562   -0.00091
  3 Na   -0.02137    0.02446   -0.06499
  4 Na    0.05191   -0.03281   -0.04121
  5 Na    0.03697   -0.05064    0.03507

System changes: positions 

Initializing position-dependent things.

Density initialized from wave functions
           .--------------------------------------.  
          /|                                      |  
         / |                                      |  
        /  |                                      |  
       /   |                                      |  
      /    |                                      |  
     /     |                                      |  
    /      |                                      |  
   /       |                                      |  
  /        |                                      |  
 *         |                                      |  
 |         |          Na                          |  
 |         |                                      |  
 |         |       Na      NNa                    |  
 |         |                                      |  
 |         |                                      |  
 |         |                                      |  
 |         |             Na   Na                  |  
 |         |                                      |  
 |         |                                      |  
 |         .--------------------------------------.  
 |        /                                      /   
 |       /                                      /    
 |      /                                      /     
 |     /                                      /      
 |    /                                      /       
 |   /                                      /        
 |  /                                      /         
 | /                                      /          
 |/                                      /           
 *--------------------------------------*            

Positions:
   0 Na     8.263379    9.594447    8.693928    ( 0.0000,  0.0000,  0.0000)
   1 Na     6.361637    8.063740   11.068022    ( 0.0000,  0.0000,  0.0000)
   2 Na     4.899513    9.985386    8.315533    ( 0.0000,  0.0000,  0.0000)
   3 Na     7.183242    9.823411    5.465980    ( 0.0000,  0.0000,  0.0000)
   4 Na    10.074737    7.801187    6.429873    ( 0.0000,  0.0000,  0.0000)
   5 Na     9.538234    6.666009    9.877445    ( 0.0000,  0.0000,  0.0000)

Unit cell:
           periodic     x           y           z      points  spacing
  1. axis:    no    16.000000    0.000000    0.000000    80     0.2000
  2. axis:    no     0.000000   16.000000    0.000000    80     0.2000
  3. axis:    no     0.000000    0.000000   16.000000    80     0.2000

  Lengths:  16.000000  16.000000  16.000000
  Angles:   90.000000  90.000000  90.000000

Effective grid spacing dv^(1/3) = 0.2000

                     log10-error:    total        iterations:
           time      wfs    density  energy       fermi  poisson
iter:   1  00:02:15          +inf    -3.802728    0      1      
iter:   2  00:02:19         -2.90    -3.802552    0      1      
iter:   3  00:02:23         -3.03    -3.802377    0      1      
iter:   4  00:02:26         -3.68    -3.802372    0      1      
iter:   5  00:02:30         -4.53    -3.802371    0      1      

Converged after 5 iterations.

Dipole moment: (-0.062290, -0.100529, -0.039422) |e|*Ang

Energy contributions relative to reference atoms: (reference = -26511.662986)

Kinetic:        +14.189226
Potential:      -11.724738
External:        +0.000000
XC:              -6.270794
Entropy (-ST):   +0.000000
Local:           +0.003935
--------------------------
Free energy:     -3.802371
Extrapolated:    -3.802371

Fermi level: -1.85778

 Band  Eigenvalues  Occupancy
    0    -27.51575    2.00000
    1    -27.51422    2.00000
    2    -27.51229    2.00000
    3    -27.51039    2.00000
    4    -27.50993    2.00000
    5    -27.50779    2.00000
    6    -27.50679    2.00000
    7    -27.50633    2.00000
    8    -27.50188    2.00000
    9    -27.49997    2.00000
   10    -27.49288    2.00000
   11    -27.49105    2.00000
   12    -27.48401    2.00000
   13    -27.48295    2.00000
   14    -27.47839    2.00000
   15    -27.47397    2.00000
   16    -27.44978    2.00000
   17    -27.44975    2.00000
   18     -3.61429    2.00000
   19     -2.51996    2.00000
   20     -2.51432    2.00000
   21     -1.20125    0.00000
   22     -1.15306    0.00000
   23     -1.14747    0.00000
   24     -0.43893    0.00000
   25      0.13947    0.00000
   26      0.14065    0.00000
   27      0.39391    0.00000
   28      0.39587    0.00000
   29      0.84121    0.00000

Gap: 1.313 eV
Transition (v -> c):
  (s=0, k=0, n=20, [0.00, 0.00, 0.00]) -> (s=0, k=0, n=21, [0.00, 0.00, 0.00])

Forces in eV/Ang:
  0 Na    0.00759    0.00059   -0.00003
  1 Na   -0.00268   -0.00652    0.01012
  2 Na   -0.01480    0.00654    0.00284
  3 Na   -0.00451    0.00756   -0.01065
  4 Na    0.00854   -0.00647   -0.00243
  5 Na    0.00733   -0.00510    0.00704

Timing:                                       incl.     excl.
--------------------------------------------------------------------
Basic WFS set positions:                      0.003     0.002   0.0% |
 Redistribute:                                0.001     0.001   0.0% |
Basis functions set positions:                0.120     0.120   0.1% |
Forces:                                       2.018     0.600   0.6% |
 LCAO forces:                                 1.418     0.002   0.0% |
  Atomic Hamiltonian force:                   0.007     0.007   0.0% |
  Initial:                                    0.001     0.000   0.0% |
   Get density matrix:                        0.000     0.000   0.0% |
  Paw correction:                             0.006     0.006   0.0% |
  Potential:                                  1.234     1.234   1.1% |
  TCI derivative:                             0.169     0.169   0.2% |
  Wait for sum:                               0.000     0.000   0.0% |
LCAO WFS Initialize:                         17.703     0.131   0.1% |
 Density initialized from wave functions:     0.835     0.622   0.6% |
  Calculate density matrix:                   0.000     0.000   0.0% |
  Construct density:                          0.212     0.212   0.2% |
  Symmetrize density:                         0.000     0.000   0.0% |
 Hamiltonian:                                16.737     0.001   0.0% |
  Atomic:                                     1.492     0.005   0.0% |
   XC Correction:                             1.487     1.487   1.4% ||
  Calculate atomic Hamiltonians:              0.049     0.049   0.0% |
  Communicate:                                0.000     0.000   0.0% |
  Hartree integrate/restrict:                 0.527     0.527   0.5% |
  Initialize Hamiltonian:                     0.000     0.000   0.0% |
  Poisson:                                    2.881     0.170   0.2% |
   Communicate bwd 0:                         0.345     0.345   0.3% |
   Communicate bwd 1:                         0.226     0.226   0.2% |
   Communicate fwd 0:                         0.392     0.392   0.4% |
   Communicate fwd 1:                         0.381     0.381   0.4% |
   fft:                                       0.343     0.343   0.3% |
   fft2:                                      1.023     1.023   1.0% |
  XC 3D grid:                                11.719    11.719  10.9% |---|
  vbar:                                       0.067     0.067   0.1% |
P tci:                                        0.074     0.074   0.1% |
Redistribute:                                 0.001     0.001   0.0% |
SCF-cycle:                                   78.690     0.007   0.0% |
 Density:                                     4.214     0.001   0.0% |
  Atomic density matrices:                    0.021     0.021   0.0% |
  Mix:                                        2.964     2.964   2.8% ||
  Multipole moments:                          0.005     0.005   0.0% |
  Normalize:                                  0.012     0.012   0.0% |
  Pseudo density:                             1.212     0.051   0.0% |
   Calculate density matrix:                  0.001     0.001   0.0% |
   Construct density:                         1.159     1.159   1.1% |
   Symmetrize density:                        0.000     0.000   0.0% |
 Hamiltonian:                                73.205     0.003   0.0% |
  Atomic:                                     6.547     0.022   0.0% |
   XC Correction:                             6.525     6.525   6.1% |-|
  Calculate atomic Hamiltonians:              0.197     0.197   0.2% |
  Communicate:                                0.000     0.000   0.0% |
  Hartree integrate/restrict:                 2.309     2.309   2.1% ||
  Poisson:                                   12.624     0.698   0.6% |
   Communicate bwd 0:                         1.510     1.510   1.4% ||
   Communicate bwd 1:                         0.998     0.998   0.9% |
   Communicate fwd 0:                         1.727     1.727   1.6% ||
   Communicate fwd 1:                         1.673     1.673   1.6% ||
   fft:                                       1.510     1.510   1.4% ||
   fft2:                                      4.509     4.509   4.2% |-|
  XC 3D grid:                                51.296    51.296  47.7% |------------------|
  vbar:                                       0.229     0.229   0.2% |
 LCAO eigensolver:                            1.263     0.002   0.0% |
  Calculate projections:                      0.002     0.002   0.0% |
  DenseAtomicCorrection:                      0.006     0.006   0.0% |
  Distribute overlap matrix:                  0.001     0.001   0.0% |
  Orbital Layouts:                            0.012     0.012   0.0% |
  Potential matrix:                           1.241     1.241   1.2% |
ST tci:                                       0.018     0.018   0.0% |
Set symmetry:                                 0.001     0.001   0.0% |
TCI: Evaluate splines:                        0.031     0.031   0.0% |
mktci:                                        0.006     0.006   0.0% |
Other:                                        8.806     8.806   8.2% |--|
--------------------------------------------------------------------
Total:                                                107.470 100.0%

Memory usage: 995.74 MiB
Date: Sat Feb 15 00:02:31 2020
