
  ___ ___ ___ _ _ _  
 |   |   |_  | | | | 
 | | | | | . | | | | 
 |__ |  _|___|_____|  19.8.1
 |___|_|             

User:   hallborn@hebbe12-1
Date:   Mon Feb 17 22:20:01 2020
Arch:   x86_64
Pid:    20689
Python: 3.7.2
gpaw:   /apps/Hebbe7/software/MPI/intel/2019.1.144-GCC-8.2.0-2.31.1/impi/2018.4.274/GPAW/19.8.1-Python-3.7.2/lib/python3.7/site-packages/gpaw
_gpaw:  /apps/Hebbe7/software/MPI/intel/2019.1.144-GCC-8.2.0-2.31.1/impi/2018.4.274/GPAW/19.8.1-Python-3.7.2/bin/
        gpaw-python
ase:    /apps/Hebbe7/software/MPI/intel/2019.1.144-GCC-8.2.0-2.31.1/impi/2018.4.274/ASE/3.18.0-Python-3.7.2/lib/python3.7/site-packages/ase (version 3.18.0)
numpy:  /apps/Hebbe7/software/MPI/intel/2019.1.144-GCC-8.2.0-2.31.1/impi/2018.4.274/SciPy-bundle/2019.03/lib/python3.7/site-packages/numpy (version 1.16.2)
scipy:  /apps/Hebbe7/software/MPI/intel/2019.1.144-GCC-8.2.0-2.31.1/impi/2018.4.274/SciPy-bundle/2019.03/lib/python3.7/site-packages/scipy (version 1.2.1)
libxc:  4.3.4
units:  Angstrom and eV
cores:  1

Input parameters:
  basis: sz(dzp)
  h: 0.25
  mode: lcao
  setups: {Na: 1}
  xc: PBE

System changes: positions, numbers, cell, pbc, initial_charges, initial_magmoms 

Initialize ...

Na-setup:
  name: Sodium
  id: 8dbce52902f3add137ce7d12431c9cac
  Z: 11
  valence: 1
  core: 10
  charge: 0.0
  file: /apps/Common/Core/GPAW-setups/0.9.20000/Na.1.PBE.gz
  compensation charges: gauss, rc=0.43, lmax=2
  cutoffs: 2.36(filt), 3.60(core),
  valence states:
                energy  radius
    3s(1.00)    -2.744   1.349
    3p(0.00)    -0.743   1.349
    *s          24.468   1.349

  LCAO basis set for Na:
    Name: sz(1.dzp)
    File: /apps/Common/Core/GPAW-setups/0.9.20000/Na.1.dzp.basis.gz
    Number of radial functions: 1
    Number of spherical harmonics: 1
      l=0, rc=11.7656 Bohr: 3s-sz confined orbital

Reference energy: -26511.662975

Spin-paired calculation

Occupation numbers:
  Fermi-Dirac: width=0.0000 eV

Convergence criteria:
  Maximum total energy change: 0.0005 eV / electron
  Maximum integral of absolute density change: 0.0001 electrons
  Maximum integral of absolute eigenstate change: 4e-08 eV^2
  Maximum number of iterations: 333

Symmetries present (total): 1

  ( 1  0  0)
  ( 0  1  0)
  ( 0  0  1)

1 k-point (Gamma)
1 k-point in the irreducible part of the Brillouin zone
       k-points in crystal coordinates                weights
   0:     0.00000000    0.00000000    0.00000000          1/1

Wave functions: LCAO
  Diagonalizer: Serial LAPACK
  Atomic Correction: dense with blas
  Datatype: float
 

Eigensolver
   LCAO using direct dense diagonalizer 

Densities:
  Coarse grid: 64*64*64 grid
  Fine grid: 128*128*128 grid
  Total Charge: 0.000000 

Density mixing:
  Method: separate
  Backend: pulay
  Linear mixing parameter: 0.25
  Mixing with 3 old densities
  No damping of long wave oscillations 

Hamiltonian:
  XC and Coulomb potentials evaluated on a 128*128*128 grid
  Using the PBE Exchange-Correlation functional
  Interpolation: tri-quintic (5. degree polynomial)
  Poisson solver: FastPoissonSolver using
    6*3+1=19 point O(h^6) finite-difference Laplacian stencil;
    FFT axes: [];
    FST axes: [0, 1, 2].
 

XC parameters: PBE with 2 nearest neighbor stencil

Memory estimate:
  Process memory now: 278.89 MiB
  Calculator: 117.51 MiB
    Density: 80.09 MiB
      Arrays: 50.70 MiB
      Localized functions: 17.94 MiB
      Mixer: 11.45 MiB
    Hamiltonian: 34.46 MiB
      Arrays: 33.16 MiB
      XC: 0.00 MiB
      Poisson: 0.00 MiB
      vbar: 1.29 MiB
    Wavefunctions: 2.96 MiB
      C [qnM]: 0.00 MiB
      S, T [2 x qmm]: 0.00 MiB
      P [aqMi]: 0.00 MiB
      BasisFunctions: 2.96 MiB
      Eigensolver: 0.00 MiB

Total number of cores used: 1

Number of atoms: 6
Number of atomic orbitals: 6
Number of bands in calculation: 6
Bands to converge: occupied states only
Number of valence electrons: 6

... initialized

Initializing position-dependent things.

Density initialized from atomic densities
           .--------------------------------------.  
          /|                                      |  
         / |                                      |  
        /  |                                      |  
       /   |                                      |  
      /    |                                      |  
     /     |                                      |  
    /      |                                      |  
   /       |                                      |  
  /        |                                      |  
 *         |           Na                         |  
 |         |                                      |  
 |         |                Na                    |  
 |         |                                      |  
 |         |            Na                        |  
 |         |                    Na                |  
 |         |                                      |  
 |         |                Na                    |  
 |         |                                      |  
 |         |             Na                       |  
 |         .--------------------------------------.  
 |        /                                      /   
 |       /                                      /    
 |      /                                      /     
 |     /                                      /      
 |    /                                      /       
 |   /                                      /        
 |  /                                      /         
 | /                                      /          
 |/                                      /           
 *--------------------------------------*            

Positions:
   0 Na    11.424955    5.046215    9.661160    ( 0.0000,  0.0000,  0.0000)
   1 Na     9.091214    7.135542   10.719357    ( 0.0000,  0.0000,  0.0000)
   2 Na     6.710298    9.263471   11.516303    ( 0.0000,  0.0000,  0.0000)
   3 Na     7.680133    8.011559    5.125248    ( 0.0000,  0.0000,  0.0000)
   4 Na     9.624253    6.463545    7.292195    ( 0.0000,  0.0000,  0.0000)
   5 Na     7.055205    8.690646    8.283979    ( 0.0000,  0.0000,  0.0000)

Unit cell:
           periodic     x           y           z      points  spacing
  1. axis:    no    16.000000    0.000000    0.000000    64     0.2500
  2. axis:    no     0.000000   16.000000    0.000000    64     0.2500
  3. axis:    no     0.000000    0.000000   16.000000    64     0.2500

  Lengths:  16.000000  16.000000  16.000000
  Angles:   90.000000  90.000000  90.000000

Effective grid spacing dv^(1/3) = 0.2500

                     log10-error:    total        iterations:
           time      wfs    density  energy       fermi  poisson
iter:   1  22:20:06          +inf    -4.304503    0      1      
iter:   2  22:20:08         -0.96    -4.275635    0      1      
iter:   3  22:20:10         -1.10    -4.256097    0      1      
iter:   4  22:20:12         -1.47    -4.253316    0      1      
iter:   5  22:20:14         -3.17    -4.253315    0      1      
iter:   6  22:20:16         -4.11    -4.253315    0      1      

Converged after 6 iterations.

Dipole moment: (0.001420, -0.002070, 0.002739) |e|*Ang

Energy contributions relative to reference atoms: (reference = -26511.662975)

Kinetic:        +16.068383
Potential:      -14.572871
External:        +0.000000
XC:              -5.757500
Entropy (-ST):   +0.000000
Local:           +0.008673
--------------------------
Free energy:     -4.253315
Extrapolated:    -4.253315

Fermi level: -2.39082

 Band  Eigenvalues  Occupancy
    0     -4.35993    2.00000
    1     -3.21559    2.00000
    2     -3.21379    2.00000
    3     -1.56785    0.00000
    4     -1.50100    0.00000
    5     -1.49586    0.00000

Gap: 1.646 eV
Transition (v -> c):
  (s=0, k=0, n=2, [0.00, 0.00, 0.00]) -> (s=0, k=0, n=3, [0.00, 0.00, 0.00])

Forces in eV/Ang:
  0 Na    0.09369   -0.07828    0.03350
  1 Na    0.03971   -0.02611    0.13542
  2 Na   -0.06672    0.06300    0.09291
  3 Na   -0.03027    0.01858   -0.12839
  4 Na    0.06991   -0.06604   -0.10315
  5 Na   -0.10585    0.08952   -0.02999

System changes: positions 

Initializing position-dependent things.

Density initialized from wave functions
           .--------------------------------------.  
          /|                                      |  
         / |                                      |  
        /  |                                      |  
       /   |                                      |  
      /    |                                      |  
     /     |                                      |  
    /      |                                      |  
   /       |                                      |  
  /        |                                      |  
 *         |           Na                         |  
 |         |                                      |  
 |         |                Na                    |  
 |         |                                      |  
 |         |            Na                        |  
 |         |                    Na                |  
 |         |                                      |  
 |         |                 Na                   |  
 |         |                                      |  
 |         |             Na                       |  
 |         .--------------------------------------.  
 |        /                                      /   
 |       /                                      /    
 |      /                                      /     
 |     /                                      /      
 |    /                                      /       
 |   /                                      /        
 |  /                                      /         
 | /                                      /          
 |/                                      /           
 *--------------------------------------*            

Positions:
   0 Na    11.426294    5.045096    9.661639    ( 0.0000,  0.0000,  0.0000)
   1 Na     9.091781    7.135169   10.721292    ( 0.0000,  0.0000,  0.0000)
   2 Na     6.709345    9.264371   11.517630    ( 0.0000,  0.0000,  0.0000)
   3 Na     7.679700    8.011824    5.123414    ( 0.0000,  0.0000,  0.0000)
   4 Na     9.625252    6.462601    7.290722    ( 0.0000,  0.0000,  0.0000)
   5 Na     7.053692    8.691925    8.283551    ( 0.0000,  0.0000,  0.0000)

Unit cell:
           periodic     x           y           z      points  spacing
  1. axis:    no    16.000000    0.000000    0.000000    64     0.2500
  2. axis:    no     0.000000   16.000000    0.000000    64     0.2500
  3. axis:    no     0.000000    0.000000   16.000000    64     0.2500

  Lengths:  16.000000  16.000000  16.000000
  Angles:   90.000000  90.000000  90.000000

Effective grid spacing dv^(1/3) = 0.2500

                     log10-error:    total        iterations:
           time      wfs    density  energy       fermi  poisson
iter:   1  22:20:18          +inf    -4.254892    0      1      
iter:   2  22:20:20         -3.48    -4.254892    0      1      
iter:   3  22:20:22         -3.75    -4.254891    0      1      
iter:   4  22:20:24         -4.37    -4.254891    0      1      

Converged after 4 iterations.

Dipole moment: (0.001384, -0.002057, 0.002770) |e|*Ang

Energy contributions relative to reference atoms: (reference = -26511.662975)

Kinetic:        +16.016176
Potential:      -14.532186
External:        +0.000000
XC:              -5.747435
Entropy (-ST):   +0.000000
Local:           +0.008553
--------------------------
Free energy:     -4.254891
Extrapolated:    -4.254891

Fermi level: -2.39021

 Band  Eigenvalues  Occupancy
    0     -4.35745    2.00000
    1     -3.21493    2.00000
    2     -3.21314    2.00000
    3     -1.56727    0.00000
    4     -1.50172    0.00000
    5     -1.49663    0.00000

Gap: 1.646 eV
Transition (v -> c):
  (s=0, k=0, n=2, [0.00, 0.00, 0.00]) -> (s=0, k=0, n=3, [0.00, 0.00, 0.00])

Forces in eV/Ang:
  0 Na    0.09224   -0.07703    0.03299
  1 Na    0.03894   -0.02561    0.13272
  2 Na   -0.06568    0.06197    0.09136
  3 Na   -0.02972    0.01822   -0.12637
  4 Na    0.06852   -0.06472   -0.10121
  5 Na   -0.10372    0.08781   -0.02936

System changes: positions 

Initializing position-dependent things.

Density initialized from wave functions
           .--------------------------------------.  
          /|                                      |  
         / |                                      |  
        /  |                                      |  
       /   |                                      |  
      /    |                                      |  
     /     |                                      |  
    /      |                                      |  
   /       |                                      |  
  /        |                                      |  
 *         |           Na                         |  
 |         |                                      |  
 |         |                Na                    |  
 |         |                                      |  
 |         |            Na                        |  
 |         |                    Na                |  
 |         |                                      |  
 |         |                 Na                   |  
 |         |                                      |  
 |         |             Na                       |  
 |         .--------------------------------------.  
 |        /                                      /   
 |       /                                      /    
 |      /                                      /     
 |     /                                      /      
 |    /                                      /       
 |   /                                      /        
 |  /                                      /         
 | /                                      /          
 |/                                      /           
 *--------------------------------------*            

Positions:
   0 Na    11.452523    5.023194    9.671020    ( 0.0000,  0.0000,  0.0000)
   1 Na     9.102853    7.127886   10.759033    ( 0.0000,  0.0000,  0.0000)
   2 Na     6.690667    9.281992   11.543607    ( 0.0000,  0.0000,  0.0000)
   3 Na     7.671249    8.017004    5.087479    ( 0.0000,  0.0000,  0.0000)
   4 Na     9.644736    6.444197    7.261943    ( 0.0000,  0.0000,  0.0000)
   5 Na     7.024200    8.716894    8.275201    ( 0.0000,  0.0000,  0.0000)

Unit cell:
           periodic     x           y           z      points  spacing
  1. axis:    no    16.000000    0.000000    0.000000    64     0.2500
  2. axis:    no     0.000000   16.000000    0.000000    64     0.2500
  3. axis:    no     0.000000    0.000000   16.000000    64     0.2500

  Lengths:  16.000000  16.000000  16.000000
  Angles:   90.000000  90.000000  90.000000

Effective grid spacing dv^(1/3) = 0.2500

                     log10-error:    total        iterations:
           time      wfs    density  energy       fermi  poisson
iter:   1  22:20:26          +inf    -4.280635    0      1      
iter:   2  22:20:28         -2.23    -4.280540    0      1      
iter:   3  22:20:30         -2.49    -4.280486    0      1      
iter:   4  22:20:32         -3.06    -4.280475    0      1      
iter:   5  22:20:34         -4.28    -4.280475    0      1      

Converged after 5 iterations.

Dipole moment: (0.001062, -0.002160, 0.002555) |e|*Ang

Energy contributions relative to reference atoms: (reference = -26511.662975)

Kinetic:        +14.981886
Potential:      -13.721792
External:        +0.000000
XC:              -5.548576
Entropy (-ST):   +0.000000
Local:           +0.008006
--------------------------
Free energy:     -4.280475
Extrapolated:    -4.280475

Fermi level: -2.37962

 Band  Eigenvalues  Occupancy
    0     -4.31157    2.00000
    1     -3.20346    2.00000
    2     -3.20157    2.00000
    3     -1.55767    0.00000
    4     -1.51692    0.00000
    5     -1.51270    0.00000

Gap: 1.644 eV
Transition (v -> c):
  (s=0, k=0, n=2, [0.00, 0.00, 0.00]) -> (s=0, k=0, n=3, [0.00, 0.00, 0.00])

Forces in eV/Ang:
  0 Na    0.06481   -0.05367    0.02311
  1 Na    0.02581   -0.01656    0.08870
  2 Na   -0.04503    0.04210    0.06291
  3 Na   -0.02060    0.01208   -0.08809
  4 Na    0.04589   -0.04289   -0.06823
  5 Na   -0.06779    0.05876   -0.01983

System changes: positions 

Initializing position-dependent things.

Density initialized from wave functions
           .--------------------------------------.  
          /|                                      |  
         / |                                      |  
        /  |                                      |  
       /   |                                      |  
      /    |                                      |  
     /     |                                      |  
    /      |                                      |  
   /       |                                      |  
  /        |                                      |  
 *         |           Na                         |  
 |         |                                      |  
 |         |                Na                    |  
 |         |                                      |  
 |         |            Na                        |  
 |         |                    Na                |  
 |         |                                      |  
 |         |                 Na                   |  
 |         |                                      |  
 |         |             Na                       |  
 |         .--------------------------------------.  
 |        /                                      /   
 |       /                                      /    
 |      /                                      /     
 |     /                                      /      
 |    /                                      /       
 |   /                                      /        
 |  /                                      /         
 | /                                      /          
 |/                                      /           
 *--------------------------------------*            

Positions:
   0 Na    11.478821    5.001243    9.680424    ( 0.0000,  0.0000,  0.0000)
   1 Na     9.113920    7.120614   10.796777    ( 0.0000,  0.0000,  0.0000)
   2 Na     6.671964    9.299630   11.569626    ( 0.0000,  0.0000,  0.0000)
   3 Na     7.662782    8.022183    5.051466    ( 0.0000,  0.0000,  0.0000)
   4 Na     9.664225    6.425800    7.233149    ( 0.0000,  0.0000,  0.0000)
   5 Na     6.994736    8.741866    8.266846    ( 0.0000,  0.0000,  0.0000)

Unit cell:
           periodic     x           y           z      points  spacing
  1. axis:    no    16.000000    0.000000    0.000000    64     0.2500
  2. axis:    no     0.000000   16.000000    0.000000    64     0.2500
  3. axis:    no     0.000000    0.000000   16.000000    64     0.2500

  Lengths:  16.000000  16.000000  16.000000
  Angles:   90.000000  90.000000  90.000000

Effective grid spacing dv^(1/3) = 0.2500

                     log10-error:    total        iterations:
           time      wfs    density  energy       fermi  poisson
iter:   1  22:20:36          +inf    -4.296829    0      1      
iter:   2  22:20:38         -2.26    -4.296747    0      1      
iter:   3  22:20:40         -2.50    -4.296698    0      1      
iter:   4  22:20:42         -3.03    -4.296688    0      1      
iter:   5  22:20:44         -4.32    -4.296688    0      1      

Converged after 5 iterations.

Dipole moment: (0.000846, -0.002315, 0.002381) |e|*Ang

Energy contributions relative to reference atoms: (reference = -26511.662975)

Kinetic:        +13.997883
Potential:      -12.945937
External:        +0.000000
XC:              -5.356039
Entropy (-ST):   +0.000000
Local:           +0.007406
--------------------------
Free energy:     -4.296688
Extrapolated:    -4.296688

Fermi level: -2.36923

 Band  Eigenvalues  Occupancy
    0     -4.26662    2.00000
    1     -3.19210    2.00000
    2     -3.18977    2.00000
    3     -1.54869    0.00000
    4     -1.53237    0.00000
    5     -1.52898    0.00000

Gap: 1.641 eV
Transition (v -> c):
  (s=0, k=0, n=2, [0.00, 0.00, 0.00]) -> (s=0, k=0, n=3, [0.00, 0.00, 0.00])

Forces in eV/Ang:
  0 Na    0.03820   -0.03149    0.01380
  1 Na    0.01293   -0.00866    0.05026
  2 Na   -0.02572    0.02304    0.03608
  3 Na   -0.01231    0.00649   -0.05142
  4 Na    0.02551   -0.02315   -0.03869
  5 Na   -0.03631    0.03384   -0.01213

System changes: positions 

Initializing position-dependent things.

Density initialized from wave functions
           .--------------------------------------.  
          /|                                      |  
         / |                                      |  
        /  |                                      |  
       /   |                                      |  
      /    |                                      |  
     /     |                                      |  
    /      |                                      |  
   /       |                                      |  
  /        |                                      |  
 *         |           Na                         |  
 |         |                                      |  
 |         |                Na                    |  
 |         |                                      |  
 |         |           Na                         |  
 |         |                    Na                |  
 |         |                                      |  
 |         |                 Na                   |  
 |         |                                      |  
 |         |             Na                       |  
 |         .--------------------------------------.  
 |        /                                      /   
 |       /                                      /    
 |      /                                      /     
 |     /                                      /      
 |    /                                      /       
 |   /                                      /        
 |  /                                      /         
 | /                                      /          
 |/                                      /           
 *--------------------------------------*            

Positions:
   0 Na    11.505166    4.979256    9.689849    ( 0.0000,  0.0000,  0.0000)
   1 Na     9.124950    7.113358   10.834536    ( 0.0000,  0.0000,  0.0000)
   2 Na     6.653248    9.317253   11.595666    ( 0.0000,  0.0000,  0.0000)
   3 Na     7.654295    8.027355    5.015401    ( 0.0000,  0.0000,  0.0000)
   4 Na     9.683708    6.407424    7.204344    ( 0.0000,  0.0000,  0.0000)
   5 Na     6.965315    8.766862    8.258466    ( 0.0000,  0.0000,  0.0000)

Unit cell:
           periodic     x           y           z      points  spacing
  1. axis:    no    16.000000    0.000000    0.000000    64     0.2500
  2. axis:    no     0.000000   16.000000    0.000000    64     0.2500
  3. axis:    no     0.000000    0.000000   16.000000    64     0.2500

  Lengths:  16.000000  16.000000  16.000000
  Angles:   90.000000  90.000000  90.000000

Effective grid spacing dv^(1/3) = 0.2500

                     log10-error:    total        iterations:
           time      wfs    density  energy       fermi  poisson
iter:   1  22:20:46          +inf    -4.304466    0      1      
iter:   2  22:20:48         -2.28    -4.304395    0      1      
iter:   3  22:20:50         -2.52    -4.304349    0      1      
iter:   4  22:20:52         -3.01    -4.304340    0      1      
iter:   5  22:20:54         -4.34    -4.304340    0      1      

Converged after 5 iterations.

Dipole moment: (0.000667, -0.002469, 0.002226) |e|*Ang

Energy contributions relative to reference atoms: (reference = -26511.662975)

Kinetic:        +13.064004
Potential:      -12.205276
External:        +0.000000
XC:              -5.169889
Entropy (-ST):   +0.000000
Local:           +0.006820
--------------------------
Free energy:     -4.304340
Extrapolated:    -4.304340

Fermi level: -2.36312

 Band  Eigenvalues  Occupancy
    0     -4.22265    2.00000
    1     -3.18075    2.00000
    2     -3.17786    2.00000
    3     -1.54837    0.00000
    4     -1.54589    0.00000
    5     -1.53960    0.00000

Gap: 1.629 eV
Transition (v -> c):
  (s=0, k=0, n=2, [0.00, 0.00, 0.00]) -> (s=0, k=0, n=3, [0.00, 0.00, 0.00])

Forces in eV/Ang:
  0 Na    0.01332   -0.01049    0.00459
  1 Na    0.00280   -0.00206    0.01627
  2 Na   -0.00794    0.00481    0.01120
  3 Na   -0.00414    0.00125   -0.01660
  4 Na    0.00793   -0.00662   -0.01264
  5 Na   -0.00893    0.01136   -0.00431

Timing:                                       incl.     excl.
--------------------------------------------------------------------
Basic WFS set positions:                      0.004     0.002   0.0% |
 Redistribute:                                0.002     0.002   0.0% |
Basis functions set positions:                0.059     0.059   0.1% |
Forces:                                       0.863     0.458   0.4% |
 LCAO forces:                                 0.406     0.002   0.0% |
  Atomic Hamiltonian force:                   0.007     0.007   0.0% |
  Initial:                                    0.001     0.000   0.0% |
   Get density matrix:                        0.001     0.001   0.0% |
  Paw correction:                             0.006     0.006   0.0% |
  Potential:                                  0.315     0.315   0.3% |
  TCI derivative:                             0.075     0.075   0.1% |
  Wait for sum:                               0.000     0.000   0.0% |
LCAO WFS Initialize:                          9.728     0.084   0.1% |
 Density initialized from wave functions:     0.371     0.335   0.3% |
  Calculate density matrix:                   0.001     0.001   0.0% |
  Construct density:                          0.036     0.036   0.0% |
  Symmetrize density:                         0.000     0.000   0.0% |
 Hamiltonian:                                 9.272     0.001   0.0% |
  Atomic:                                     1.361     0.006   0.0% |
   XC Correction:                             1.355     1.355   1.2% |
  Calculate atomic Hamiltonians:              0.035     0.035   0.0% |
  Communicate:                                0.000     0.000   0.0% |
  Hartree integrate/restrict:                 0.250     0.250   0.2% |
  Initialize Hamiltonian:                     0.000     0.000   0.0% |
  Poisson:                                    1.377     0.087   0.1% |
   Communicate bwd 0:                         0.167     0.167   0.1% |
   Communicate bwd 1:                         0.101     0.101   0.1% |
   Communicate fwd 0:                         0.157     0.157   0.1% |
   Communicate fwd 1:                         0.164     0.164   0.1% |
   fft:                                       0.209     0.209   0.2% |
   fft2:                                      0.493     0.493   0.4% |
  XC 3D grid:                                 6.207     6.207   5.5% |-|
  vbar:                                       0.041     0.041   0.0% |
P tci:                                        0.055     0.055   0.0% |
Redistribute:                                 0.001     0.001   0.0% |
SCF-cycle:                                   39.044     0.010   0.0% |
 Density:                                     1.998     0.001   0.0% |
  Atomic density matrices:                    0.023     0.023   0.0% |
  Mix:                                        1.751     1.751   1.6% ||
  Multipole moments:                          0.005     0.005   0.0% |
  Normalize:                                  0.009     0.009   0.0% |
  Pseudo density:                             0.208     0.030   0.0% |
   Calculate density matrix:                  0.001     0.001   0.0% |
   Construct density:                         0.177     0.177   0.2% |
   Symmetrize density:                        0.001     0.001   0.0% |
 Hamiltonian:                                36.824     0.004   0.0% |
  Atomic:                                     5.440     0.026   0.0% |
   XC Correction:                             5.414     5.414   4.8% |-|
  Calculate atomic Hamiltonians:              0.143     0.143   0.1% |
  Communicate:                                0.000     0.000   0.0% |
  Hartree integrate/restrict:                 0.986     0.986   0.9% |
  Poisson:                                    5.357     0.317   0.3% |
   Communicate bwd 0:                         0.625     0.625   0.6% |
   Communicate bwd 1:                         0.403     0.403   0.4% |
   Communicate fwd 0:                         0.611     0.611   0.5% |
   Communicate fwd 1:                         0.634     0.634   0.6% |
   fft:                                       0.830     0.830   0.7% |
   fft2:                                      1.937     1.937   1.7% ||
  XC 3D grid:                                24.759    24.759  22.0% |--------|
  vbar:                                       0.136     0.136   0.1% |
 LCAO eigensolver:                            0.212     0.004   0.0% |
  Calculate projections:                      0.002     0.002   0.0% |
  DenseAtomicCorrection:                      0.008     0.008   0.0% |
  Distribute overlap matrix:                  0.001     0.001   0.0% |
  Orbital Layouts:                            0.006     0.006   0.0% |
  Potential matrix:                           0.192     0.192   0.2% |
ST tci:                                       0.014     0.014   0.0% |
Set symmetry:                                 0.001     0.001   0.0% |
TCI: Evaluate splines:                        0.006     0.006   0.0% |
mktci:                                        0.007     0.007   0.0% |
Other:                                       62.658    62.658  55.7% |---------------------|
--------------------------------------------------------------------
Total:                                                112.440 100.0%

Memory usage: 559.79 MiB
Date: Mon Feb 17 22:21:53 2020
