
  ___ ___ ___ _ _ _  
 |   |   |_  | | | | 
 | | | | | . | | | | 
 |__ |  _|___|_____|  19.8.1
 |___|_|             

User:   hallborn@hebbe07-2
Date:   Thu Feb 13 00:00:00 2020
Arch:   x86_64
Pid:    27364
Python: 3.7.2
gpaw:   /apps/Hebbe7/software/MPI/intel/2019.1.144-GCC-8.2.0-2.31.1/impi/2018.4.274/GPAW/19.8.1-Python-3.7.2/lib/python3.7/site-packages/gpaw
_gpaw:  /apps/Hebbe7/software/MPI/intel/2019.1.144-GCC-8.2.0-2.31.1/impi/2018.4.274/GPAW/19.8.1-Python-3.7.2/bin/
        gpaw-python
ase:    /apps/Hebbe7/software/MPI/intel/2019.1.144-GCC-8.2.0-2.31.1/impi/2018.4.274/ASE/3.18.0-Python-3.7.2/lib/python3.7/site-packages/ase (version 3.18.0)
numpy:  /apps/Hebbe7/software/MPI/intel/2019.1.144-GCC-8.2.0-2.31.1/impi/2018.4.274/SciPy-bundle/2019.03/lib/python3.7/site-packages/numpy (version 1.16.2)
scipy:  /apps/Hebbe7/software/MPI/intel/2019.1.144-GCC-8.2.0-2.31.1/impi/2018.4.274/SciPy-bundle/2019.03/lib/python3.7/site-packages/scipy (version 1.2.1)
libxc:  4.3.4
units:  Angstrom and eV
cores:  1

Input parameters:
  mode: lcao

System changes: positions, numbers, cell, pbc, initial_charges, initial_magmoms 

Initialize ...

Na-setup:
  name: Sodium
  id: 74d681ec425db66acd6a232eb07f04e6
  Z: 11
  valence: 7
  core: 4
  charge: 0.0
  file: /apps/Common/Core/GPAW-setups/0.9.20000/Na.LDA.gz
  compensation charges: gauss, rc=0.37, lmax=2
  cutoffs: 2.17(filt), 2.59(core),
  valence states:
                energy  radius
    3s(1.00)    -2.819   1.201
    2p(6.00)   -28.826   1.217
    3p(0.00)    -0.774   1.217
    *s          24.392   1.201
    *d           0.000   1.238

  Using partial waves for Na as LCAO basis

Reference energy: -26392.251266

Spin-paired calculation

Occupation numbers:
  Fermi-Dirac: width=0.0000 eV

Convergence criteria:
  Maximum total energy change: 0.0005 eV / electron
  Maximum integral of absolute density change: 0.0001 electrons
  Maximum integral of absolute eigenstate change: 4e-08 eV^2
  Maximum number of iterations: 333

Symmetries present (total): 1

  ( 1  0  0)
  ( 0  1  0)
  ( 0  0  1)

1 k-point (Gamma)
1 k-point in the irreducible part of the Brillouin zone
       k-points in crystal coordinates                weights
   0:     0.00000000    0.00000000    0.00000000          1/1

Wave functions: LCAO
  Diagonalizer: Serial LAPACK
  Atomic Correction: dense with blas
  Datatype: float
 

Eigensolver
   LCAO using direct dense diagonalizer 

Densities:
  Coarse grid: 80*80*80 grid
  Fine grid: 160*160*160 grid
  Total Charge: 0.000000 

Density mixing:
  Method: separate
  Backend: pulay
  Linear mixing parameter: 0.25
  Mixing with 3 old densities
  No damping of long wave oscillations 

Hamiltonian:
  XC and Coulomb potentials evaluated on a 160*160*160 grid
  Using the LDA Exchange-Correlation functional
  Interpolation: tri-quintic (5. degree polynomial)
  Poisson solver: FastPoissonSolver using
    6*3+1=19 point O(h^6) finite-difference Laplacian stencil;
    FFT axes: [];
    FST axes: [0, 1, 2].
 

Memory estimate:
  Process memory now: 459.38 MiB
  Calculator: 228.55 MiB
    Density: 148.73 MiB
      Arrays: 99.53 MiB
      Localized functions: 26.63 MiB
      Mixer: 22.57 MiB
    Hamiltonian: 67.06 MiB
      Arrays: 65.10 MiB
      XC: 0.00 MiB
      Poisson: 0.00 MiB
      vbar: 1.96 MiB
    Wavefunctions: 12.77 MiB
      C [qnM]: 0.01 MiB
      S, T [2 x qmm]: 0.03 MiB
      P [aqMi]: 0.00 MiB
      BasisFunctions: 12.73 MiB
      Eigensolver: 0.00 MiB

Total number of cores used: 1

Number of atoms: 6
Number of atomic orbitals: 42
Number of bands in calculation: 30
Bands to converge: occupied states only
Number of valence electrons: 42

... initialized

Initializing position-dependent things.

Density initialized from atomic densities
           .--------------------------------------.  
          /|                                      |  
         / |                                      |  
        /  |                                      |  
       /   |                                      |  
      /    |                                      |  
     /     |                                      |  
    /      |                                      |  
   /       |                                      |  
  /        |                                      |  
 *         |           Na                         |  
 |         |                                      |  
 |         |                Na                    |  
 |         |                                      |  
 |         |            Na                        |  
 |         |                    Na                |  
 |         |                                      |  
 |         |                Na                    |  
 |         |                                      |  
 |         |             Na                       |  
 |         .--------------------------------------.  
 |        /                                      /   
 |       /                                      /    
 |      /                                      /     
 |     /                                      /      
 |    /                                      /       
 |   /                                      /        
 |  /                                      /         
 | /                                      /          
 |/                                      /           
 *--------------------------------------*            

Positions:
   0 Na    11.424955    5.046215    9.661160    ( 0.0000,  0.0000,  0.0000)
   1 Na     9.091214    7.135542   10.719357    ( 0.0000,  0.0000,  0.0000)
   2 Na     6.710298    9.263471   11.516303    ( 0.0000,  0.0000,  0.0000)
   3 Na     7.680133    8.011559    5.125248    ( 0.0000,  0.0000,  0.0000)
   4 Na     9.624253    6.463545    7.292195    ( 0.0000,  0.0000,  0.0000)
   5 Na     7.055205    8.690646    8.283979    ( 0.0000,  0.0000,  0.0000)

Unit cell:
           periodic     x           y           z      points  spacing
  1. axis:    no    16.000000    0.000000    0.000000    80     0.2000
  2. axis:    no     0.000000   16.000000    0.000000    80     0.2000
  3. axis:    no     0.000000    0.000000   16.000000    80     0.2000

  Lengths:  16.000000  16.000000  16.000000
  Angles:   90.000000  90.000000  90.000000

Effective grid spacing dv^(1/3) = 0.2000

                     log10-error:    total        iterations:
           time      wfs    density  energy       fermi  poisson
iter:   1  00:00:08          +inf    -4.433235    0      1      
iter:   2  00:00:09         -1.36    -4.256851    0      1      
iter:   3  00:00:11         -1.56    -4.208060    0      1      
iter:   4  00:00:13         -1.94    -4.198403    0      1      
iter:   5  00:00:14         -2.79    -4.198097    0      1      
iter:   6  00:00:16         -3.25    -4.198082    0      1      
iter:   7  00:00:17         -3.40    -4.198066    0      1      
iter:   8  00:00:19         -4.37    -4.198066    0      1      

Converged after 8 iterations.

Dipole moment: (0.003816, 0.001469, 0.003082) |e|*Ang

Energy contributions relative to reference atoms: (reference = -26392.251266)

Kinetic:        +18.981386
Potential:      -15.878113
External:        +0.000000
XC:              -7.325498
Entropy (-ST):   +0.000000
Local:           +0.024158
--------------------------
Free energy:     -4.198066
Extrapolated:    -4.198066

Fermi level: -2.04991

 Band  Eigenvalues  Occupancy
    0    -27.73131    2.00000
    1    -27.73097    2.00000
    2    -27.72943    2.00000
    3    -27.72778    2.00000
    4    -27.72513    2.00000
    5    -27.72408    2.00000
    6    -27.72086    2.00000
    7    -27.71939    2.00000
    8    -27.71566    2.00000
    9    -27.63300    2.00000
   10    -27.61527    2.00000
   11    -27.61510    2.00000
   12    -27.61447    2.00000
   13    -27.61291    2.00000
   14    -27.61228    2.00000
   15    -27.58901    2.00000
   16    -27.58830    2.00000
   17    -27.58386    2.00000
   18     -3.78267    2.00000
   19     -2.76828    2.00000
   20     -2.76662    2.00000
   21     -1.33320    0.00000
   22     -1.21784    0.00000
   23     -1.21393    0.00000
   24     -0.73785    0.00000
   25      0.15183    0.00000
   26      0.15641    0.00000
   27      0.23614    0.00000
   28      0.27529    0.00000
   29      0.27823    0.00000

Gap: 1.433 eV
Transition (v -> c):
  (s=0, k=0, n=20, [0.00, 0.00, 0.00]) -> (s=0, k=0, n=21, [0.00, 0.00, 0.00])
Timing:                              incl.     excl.
-----------------------------------------------------------
Basic WFS set positions:             0.000     0.000   0.0% |
Basis functions set positions:       0.026     0.026   0.1% |
LCAO WFS Initialize:                 1.519     0.155   0.4% |
 Hamiltonian:                        1.364     0.000   0.0% |
  Atomic:                            0.095     0.001   0.0% |
   XC Correction:                    0.094     0.094   0.2% |
  Calculate atomic Hamiltonians:     0.009     0.009   0.0% |
  Communicate:                       0.000     0.000   0.0% |
  Hartree integrate/restrict:        0.094     0.094   0.2% |
  Initialize Hamiltonian:            0.000     0.000   0.0% |
  Poisson:                           0.514     0.034   0.1% |
   Communicate bwd 0:                0.060     0.060   0.1% |
   Communicate bwd 1:                0.041     0.041   0.1% |
   Communicate fwd 0:                0.056     0.056   0.1% |
   Communicate fwd 1:                0.062     0.062   0.2% |
   fft:                              0.073     0.073   0.2% |
   fft2:                             0.189     0.189   0.5% |
  XC 3D grid:                        0.631     0.631   1.6% ||
  vbar:                              0.019     0.019   0.0% |
P tci:                               0.014     0.014   0.0% |
SCF-cycle:                          11.300     0.003   0.0% |
 Density:                            1.512     0.000   0.0% |
  Atomic density matrices:           0.008     0.008   0.0% |
  Mix:                               1.071     1.071   2.6% ||
  Multipole moments:                 0.002     0.002   0.0% |
  Normalize:                         0.004     0.004   0.0% |
  Pseudo density:                    0.427     0.018   0.0% |
   Calculate density matrix:         0.000     0.000   0.0% |
   Construct density:                0.408     0.408   1.0% |
   Symmetrize density:               0.000     0.000   0.0% |
 Hamiltonian:                        9.369     0.001   0.0% |
  Atomic:                            0.665     0.009   0.0% |
   XC Correction:                    0.656     0.656   1.6% ||
  Calculate atomic Hamiltonians:     0.067     0.067   0.2% |
  Communicate:                       0.000     0.000   0.0% |
  Hartree integrate/restrict:        0.660     0.660   1.6% ||
  Poisson:                           3.528     0.177   0.4% |
   Communicate bwd 0:                0.419     0.419   1.0% |
   Communicate bwd 1:                0.285     0.285   0.7% |
   Communicate fwd 0:                0.386     0.386   0.9% |
   Communicate fwd 1:                0.422     0.422   1.0% |
   fft:                              0.516     0.516   1.3% ||
   fft2:                             1.322     1.322   3.3% ||
  XC 3D grid:                        4.374     4.374  10.8% |---|
  vbar:                              0.074     0.074   0.2% |
 LCAO eigensolver:                   0.416     0.001   0.0% |
  Calculate projections:             0.001     0.001   0.0% |
  DenseAtomicCorrection:             0.003     0.003   0.0% |
  Distribute overlap matrix:         0.000     0.000   0.0% |
  Orbital Layouts:                   0.006     0.006   0.0% |
  Potential matrix:                  0.405     0.405   1.0% |
ST tci:                              0.005     0.005   0.0% |
Set symmetry:                        0.001     0.001   0.0% |
TCI: Evaluate splines:               0.037     0.037   0.1% |
mktci:                               0.002     0.002   0.0% |
Other:                              27.773    27.773  68.3% |--------------------------|
-----------------------------------------------------------
Total:                                        40.677 100.0%

Memory usage: 897.83 MiB
Date: Thu Feb 13 00:00:41 2020
