
  ___ ___ ___ _ _ _  
 |   |   |_  | | | | 
 | | | | | . | | | | 
 |__ |  _|___|_____|  19.8.1
 |___|_|             

User:   hallborn@hebbe10-8
Date:   Mon Feb 17 17:44:48 2020
Arch:   x86_64
Pid:    15378
Python: 3.7.2
gpaw:   /apps/Hebbe7/software/MPI/intel/2019.1.144-GCC-8.2.0-2.31.1/impi/2018.4.274/GPAW/19.8.1-Python-3.7.2/lib/python3.7/site-packages/gpaw
_gpaw:  /apps/Hebbe7/software/MPI/intel/2019.1.144-GCC-8.2.0-2.31.1/impi/2018.4.274/GPAW/19.8.1-Python-3.7.2/bin/
        gpaw-python
ase:    /apps/Hebbe7/software/MPI/intel/2019.1.144-GCC-8.2.0-2.31.1/impi/2018.4.274/ASE/3.18.0-Python-3.7.2/lib/python3.7/site-packages/ase (version 3.18.0)
numpy:  /apps/Hebbe7/software/MPI/intel/2019.1.144-GCC-8.2.0-2.31.1/impi/2018.4.274/SciPy-bundle/2019.03/lib/python3.7/site-packages/numpy (version 1.16.2)
scipy:  /apps/Hebbe7/software/MPI/intel/2019.1.144-GCC-8.2.0-2.31.1/impi/2018.4.274/SciPy-bundle/2019.03/lib/python3.7/site-packages/scipy (version 1.2.1)
libxc:  4.3.4
units:  Angstrom and eV
cores:  1

Input parameters:
  basis: dzp
  h: 0.25
  mode: lcao
  nbands: 10
  occupations: {name: fermi-dirac,
                width: 0.05}
  setups: {Na: 1}

System changes: positions, numbers, cell, pbc, initial_charges, initial_magmoms 

Initialize ...

Na-setup:
  name: Sodium
  id: fa5c50181d04022fed15b2593599c257
  Z: 11
  valence: 1
  core: 10
  charge: 0.0
  file: /apps/Common/Core/GPAW-setups/0.9.20000/Na.1.LDA.gz
  compensation charges: gauss, rc=0.43, lmax=2
  cutoffs: 2.36(filt), 3.60(core),
  valence states:
                energy  radius
    3s(1.00)    -2.819   1.349
    3p(0.00)    -0.774   1.349
    *s          24.392   1.349

  LCAO basis set for Na:
    Name: 1.dzp
    File: /apps/Common/Core/GPAW-setups/0.9.20000/Na.1.dzp.basis.gz
    Number of radial functions: 3
    Number of spherical harmonics: 5
      l=0, rc=11.7656 Bohr: 3s-sz confined orbital
      l=0, rc=7.1094 Bohr: 3s-dz split-valence wave
      l=1, rc=11.7656 Bohr: p-type Gaussian polarization

Reference energy: -26392.251304

Spin-paired calculation

Occupation numbers:
  Fermi-Dirac: width=0.0500 eV

Convergence criteria:
  Maximum total energy change: 0.0005 eV / electron
  Maximum integral of absolute density change: 0.0001 electrons
  Maximum integral of absolute eigenstate change: 4e-08 eV^2
  Maximum number of iterations: 333

Symmetries present (total): 1

  ( 1  0  0)
  ( 0  1  0)
  ( 0  0  1)

1 k-point (Gamma)
1 k-point in the irreducible part of the Brillouin zone
       k-points in crystal coordinates                weights
   0:     0.00000000    0.00000000    0.00000000          1/1

Wave functions: LCAO
  Diagonalizer: Serial LAPACK
  Atomic Correction: dense with blas
  Datatype: float
 

Eigensolver
   LCAO using direct dense diagonalizer 

Densities:
  Coarse grid: 64*64*64 grid
  Fine grid: 128*128*128 grid
  Total Charge: 0.000000 

Density mixing:
  Method: separate
  Backend: pulay
  Linear mixing parameter: 0.25
  Mixing with 3 old densities
  No damping of long wave oscillations 

Hamiltonian:
  XC and Coulomb potentials evaluated on a 128*128*128 grid
  Using the LDA Exchange-Correlation functional
  Interpolation: tri-quintic (5. degree polynomial)
  Poisson solver: FastPoissonSolver using
    6*3+1=19 point O(h^6) finite-difference Laplacian stencil;
    FFT axes: [];
    FST axes: [0, 1, 2].
 

Memory estimate:
  Process memory now: 276.90 MiB
  Calculator: 127.06 MiB
    Density: 80.09 MiB
      Arrays: 50.70 MiB
      Localized functions: 17.94 MiB
      Mixer: 11.45 MiB
    Hamiltonian: 34.46 MiB
      Arrays: 33.16 MiB
      XC: 0.00 MiB
      Poisson: 0.00 MiB
      vbar: 1.29 MiB
    Wavefunctions: 12.52 MiB
      C [qnM]: 0.00 MiB
      S, T [2 x qmm]: 0.01 MiB
      P [aqMi]: 0.00 MiB
      BasisFunctions: 12.50 MiB
      Eigensolver: 0.00 MiB

Total number of cores used: 1

Number of atoms: 6
Number of atomic orbitals: 30
Number of bands in calculation: 10
Bands to converge: occupied states only
Number of valence electrons: 6

... initialized

Initializing position-dependent things.

Density initialized from atomic densities
           .--------------------------------------.  
          /|                                      |  
         / |                                      |  
        /  |                                      |  
       /   |                                      |  
      /    |                                      |  
     /     |                                      |  
    /      |                                      |  
   /       |                                      |  
  /        |                                      |  
 *         |           Na                         |  
 |         |                                      |  
 |         |                Na                    |  
 |         |                                      |  
 |         |            Na                        |  
 |         |                    Na                |  
 |         |                                      |  
 |         |                Na                    |  
 |         |                                      |  
 |         |             Na                       |  
 |         .--------------------------------------.  
 |        /                                      /   
 |       /                                      /    
 |      /                                      /     
 |     /                                      /      
 |    /                                      /       
 |   /                                      /        
 |  /                                      /         
 | /                                      /          
 |/                                      /           
 *--------------------------------------*            

Positions:
   0 Na    11.424955    5.046215    9.661160    ( 0.0000,  0.0000,  0.0000)
   1 Na     9.091214    7.135542   10.719357    ( 0.0000,  0.0000,  0.0000)
   2 Na     6.710298    9.263471   11.516303    ( 0.0000,  0.0000,  0.0000)
   3 Na     7.680133    8.011559    5.125248    ( 0.0000,  0.0000,  0.0000)
   4 Na     9.624253    6.463545    7.292195    ( 0.0000,  0.0000,  0.0000)
   5 Na     7.055205    8.690646    8.283979    ( 0.0000,  0.0000,  0.0000)

Unit cell:
           periodic     x           y           z      points  spacing
  1. axis:    no    16.000000    0.000000    0.000000    64     0.2500
  2. axis:    no     0.000000   16.000000    0.000000    64     0.2500
  3. axis:    no     0.000000    0.000000   16.000000    64     0.2500

  Lengths:  16.000000  16.000000  16.000000
  Angles:   90.000000  90.000000  90.000000

Effective grid spacing dv^(1/3) = 0.2500

                     log10-error:    total        iterations:
           time      wfs    density  energy       fermi  poisson
iter:   1  17:44:52          +inf    -5.137110    1      1      
iter:   2  17:44:53         -0.64    -4.998569    6      1      
iter:   3  17:44:54         -0.84    -4.940656    6      1      
iter:   4  17:44:54         -1.24    -4.933837    3      1      
iter:   5  17:44:55         -2.08    -4.933784    2      1      
iter:   6  17:44:56         -2.32    -4.933793    1      1      
iter:   7  17:44:57         -2.49    -4.933795    2      1      
iter:   8  17:44:58         -3.53    -4.933795    1      1      
iter:   9  17:44:58         -3.75    -4.933795    1      1      
iter:  10  17:44:59         -4.22    -4.933795    1      1      

Converged after 10 iterations.

Dipole moment: (0.000483, -0.001078, 0.002902) |e|*Ang

Energy contributions relative to reference atoms: (reference = -26392.251304)

Kinetic:        +19.193401
Potential:      -17.112915
External:        +0.000000
XC:              -7.035516
Entropy (-ST):   -0.000002
Local:           +0.021236
--------------------------
Free energy:     -4.933796
Extrapolated:    -4.933795

Fermi level: -2.37303

 Band  Eigenvalues  Occupancy
    0     -4.20325    2.00000
    1     -3.13372    2.00000
    2     -3.13203    2.00000
    3     -1.63066    0.00000
    4     -1.55359    0.00000
    5     -1.54922    0.00000
    6      2.06589    0.00000
    7      2.06820    0.00000
    8      2.45416    0.00000
    9      3.37789    0.00000

Gap: 1.501 eV
Transition (v -> c):
  (s=0, k=0, n=2, [0.00, 0.00, 0.00]) -> (s=0, k=0, n=3, [0.00, 0.00, 0.00])

Forces in eV/Ang:
  0 Na   -0.00258    0.00295    0.00215
  1 Na    0.00474   -0.00481   -0.00061
  2 Na   -0.00291   -0.00021   -0.00090
  3 Na    0.00009   -0.00173   -0.00394
  4 Na   -0.00207    0.00129   -0.00029
  5 Na    0.00311    0.00276    0.00326

Timing:                              incl.     excl.
-----------------------------------------------------------
Basic WFS set positions:             0.000     0.000   0.0% |
Basis functions set positions:       0.024     0.024   0.1% |
Forces:                              0.362     0.081   0.3% |
 LCAO forces:                        0.281     0.000   0.0% |
  Atomic Hamiltonian force:          0.001     0.001   0.0% |
  Initial:                           0.000     0.000   0.0% |
   Get density matrix:               0.000     0.000   0.0% |
  Paw correction:                    0.001     0.001   0.0% |
  Potential:                         0.258     0.258   1.1% |
  TCI derivative:                    0.020     0.020   0.1% |
  Wait for sum:                      0.000     0.000   0.0% |
LCAO WFS Initialize:                 0.694     0.053   0.2% |
 Hamiltonian:                        0.641     0.000   0.0% |
  Atomic:                            0.070     0.001   0.0% |
   XC Correction:                    0.069     0.069   0.3% |
  Calculate atomic Hamiltonians:     0.006     0.006   0.0% |
  Communicate:                       0.000     0.000   0.0% |
  Hartree integrate/restrict:        0.032     0.032   0.1% |
  Initialize Hamiltonian:            0.001     0.001   0.0% |
  Poisson:                           0.223     0.015   0.1% |
   Communicate bwd 0:                0.026     0.026   0.1% |
   Communicate bwd 1:                0.016     0.016   0.1% |
   Communicate fwd 0:                0.027     0.027   0.1% |
   Communicate fwd 1:                0.029     0.029   0.1% |
   fft:                              0.033     0.033   0.1% |
   fft2:                             0.078     0.078   0.3% |
  XC 3D grid:                        0.299     0.299   1.3% ||
  vbar:                              0.009     0.009   0.0% |
P tci:                               0.011     0.011   0.0% |
SCF-cycle:                           7.331     0.005   0.0% |
 Density:                            1.075     0.000   0.0% |
  Atomic density matrices:           0.007     0.007   0.0% |
  Mix:                               0.552     0.552   2.4% ||
  Multipole moments:                 0.002     0.002   0.0% |
  Normalize:                         0.003     0.003   0.0% |
  Pseudo density:                    0.510     0.010   0.0% |
   Calculate density matrix:         0.000     0.000   0.0% |
   Construct density:                0.499     0.499   2.1% ||
   Symmetrize density:               0.000     0.000   0.0% |
 Hamiltonian:                        5.731     0.001   0.0% |
  Atomic:                            0.634     0.008   0.0% |
   XC Correction:                    0.626     0.626   2.7% ||
  Calculate atomic Hamiltonians:     0.052     0.052   0.2% |
  Communicate:                       0.000     0.000   0.0% |
  Hartree integrate/restrict:        0.374     0.374   1.6% ||
  Poisson:                           1.946     0.110   0.5% |
   Communicate bwd 0:                0.233     0.233   1.0% |
   Communicate bwd 1:                0.148     0.148   0.6% |
   Communicate fwd 0:                0.213     0.213   0.9% |
   Communicate fwd 1:                0.242     0.242   1.0% |
   fft:                              0.291     0.291   1.2% |
   fft2:                             0.709     0.709   3.0% ||
  XC 3D grid:                        2.674     2.674  11.5% |----|
  vbar:                              0.049     0.049   0.2% |
 LCAO eigensolver:                   0.521     0.001   0.0% |
  Calculate projections:             0.001     0.001   0.0% |
  DenseAtomicCorrection:             0.002     0.002   0.0% |
  Distribute overlap matrix:         0.000     0.000   0.0% |
  Orbital Layouts:                   0.004     0.004   0.0% |
  Potential matrix:                  0.513     0.513   2.2% ||
ST tci:                              0.003     0.003   0.0% |
Set symmetry:                        0.001     0.001   0.0% |
TCI: Evaluate splines:               0.018     0.018   0.1% |
mktci:                               0.001     0.001   0.0% |
Other:                              14.833    14.833  63.7% |------------------------|
-----------------------------------------------------------
Total:                                        23.279 100.0%

Memory usage: 524.16 MiB
Date: Mon Feb 17 17:45:12 2020
