
  ___ ___ ___ _ _ _  
 |   |   |_  | | | | 
 | | | | | . | | | | 
 |__ |  _|___|_____|  19.8.1
 |___|_|             

User:   hallborn@hebbe12-5
Date:   Thu Feb 13 00:18:09 2020
Arch:   x86_64
Pid:    30520
Python: 3.7.2
gpaw:   /apps/Hebbe7/software/MPI/intel/2019.1.144-GCC-8.2.0-2.31.1/impi/2018.4.274/GPAW/19.8.1-Python-3.7.2/lib/python3.7/site-packages/gpaw
_gpaw:  /apps/Hebbe7/software/MPI/intel/2019.1.144-GCC-8.2.0-2.31.1/impi/2018.4.274/GPAW/19.8.1-Python-3.7.2/bin/
        gpaw-python
ase:    /apps/Hebbe7/software/MPI/intel/2019.1.144-GCC-8.2.0-2.31.1/impi/2018.4.274/ASE/3.18.0-Python-3.7.2/lib/python3.7/site-packages/ase (version 3.18.0)
numpy:  /apps/Hebbe7/software/MPI/intel/2019.1.144-GCC-8.2.0-2.31.1/impi/2018.4.274/SciPy-bundle/2019.03/lib/python3.7/site-packages/numpy (version 1.16.2)
scipy:  /apps/Hebbe7/software/MPI/intel/2019.1.144-GCC-8.2.0-2.31.1/impi/2018.4.274/SciPy-bundle/2019.03/lib/python3.7/site-packages/scipy (version 1.2.1)
libxc:  4.3.4
units:  Angstrom and eV
cores:  1

Input parameters:
  mode: {ecut: 340.0,
         gammacentered: False,
         name: pw}

System changes: positions, numbers, cell, pbc, initial_charges, initial_magmoms 

Initialize ...

Na-setup:
  name: Sodium
  id: 74d681ec425db66acd6a232eb07f04e6
  Z: 11
  valence: 7
  core: 4
  charge: 0.0
  file: /apps/Common/Core/GPAW-setups/0.9.20000/Na.LDA.gz
  compensation charges: gauss, rc=0.37, lmax=2
  cutoffs: 2.17(filt), 2.59(core),
  valence states:
                energy  radius
    3s(1.00)    -2.819   1.201
    2p(6.00)   -28.826   1.217
    3p(0.00)    -0.774   1.217
    *s          24.392   1.201
    *d           0.000   1.238

  Using partial waves for Na as LCAO basis

Reference energy: -26392.251266

Spin-paired calculation

Occupation numbers:
  Fermi-Dirac: width=0.0000 eV

Convergence criteria:
  Maximum total energy change: 0.0005 eV / electron
  Maximum integral of absolute density change: 0.0001 electrons
  Maximum integral of absolute eigenstate change: 4e-08 eV^2
  Maximum number of iterations: 333

Symmetries present (total): 1

  ( 1  0  0)
  ( 0  1  0)
  ( 0  0  1)

1 k-point (Gamma)
1 k-point in the irreducible part of the Brillouin zone
       k-points in crystal coordinates                weights
   0:     0.00000000    0.00000000    0.00000000          1/1

Wave functions: Plane wave expansion
  Cutoff energy: 340.000 eV
  Number of coefficients: 58077 (reduced to 29039)
  Pulay-stress correction: 0.000000 eV/Ang^3 (de/decut=0.000000)
  Using FFTW library
  ScaLapack parameters: grid=1x1, blocksize=None
  Wavefunction extrapolation:
    Improved wavefunction reuse through dual PAW basis 

Eigensolver
   Davidson(niter=2, smin=None, normalize=True) 

Densities:
  Coarse grid: 70*70*70 grid
  Fine grid: 140*140*140 grid
  Total Charge: 0.000000 

Density mixing:
  Method: separate
  Backend: pulay
  Linear mixing parameter: 0.05
  Mixing with 5 old densities
  Damping of long wave oscillations: 50 

Hamiltonian:
  XC and Coulomb potentials evaluated on a 140*140*140 grid
  Using the LDA Exchange-Correlation functional
 

Memory estimate:
  Process memory now: 600.52 MiB
  Calculator: 240.71 MiB
    Density: 155.87 MiB
      Arrays: 68.04 MiB
      Localized functions: 61.67 MiB
      Mixer: 26.17 MiB
    Hamiltonian: 45.74 MiB
      Arrays: 44.49 MiB
      XC: 0.00 MiB
      Poisson: 0.00 MiB
      vbar: 1.26 MiB
    Wavefunctions: 39.09 MiB
      Arrays psit_nG: 13.29 MiB
      Eigensolver: 15.58 MiB
      Projections: 0.02 MiB
      Projectors: 3.10 MiB
      PW-descriptor: 7.10 MiB

Total number of cores used: 1

Number of atoms: 6
Number of atomic orbitals: 42
Number of bands in calculation: 30
Bands to converge: occupied states only
Number of valence electrons: 42

... initialized

Initializing position-dependent things.

Density initialized from atomic densities
Creating initial wave functions:
  30 bands from LCAO basis set

           .--------------------------------------.  
          /|                                      |  
         / |                                      |  
        /  |                                      |  
       /   |                                      |  
      /    |                                      |  
     /     |                                      |  
    /      |                                      |  
   /       |                                      |  
  /        |                                      |  
 *         |                                      |  
 |         |          Na                          |  
 |         |                                      |  
 |         |       Na      Na                     |  
 |         |                Na                    |  
 |         |                                      |  
 |         |                                      |  
 |         |             Na   Na                  |  
 |         |                                      |  
 |         |                                      |  
 |         .--------------------------------------.  
 |        /                                      /   
 |       /                                      /    
 |      /                                      /     
 |     /                                      /      
 |    /                                      /       
 |   /                                      /        
 |  /                                      /         
 | /                                      /          
 |/                                      /           
 *--------------------------------------*            

Positions:
   0 Na     8.210231    9.489933    8.656516    ( 0.0000,  0.0000,  0.0000)
   1 Na     6.417931    8.101846   10.968460    ( 0.0000,  0.0000,  0.0000)
   2 Na     5.009862    9.947279    8.321395    ( 0.0000,  0.0000,  0.0000)
   3 Na     7.211492    9.790525    5.577356    ( 0.0000,  0.0000,  0.0000)
   4 Na     9.992557    7.848605    6.505352    ( 0.0000,  0.0000,  0.0000)
   5 Na     9.477264    6.754058    9.822530    ( 0.0000,  0.0000,  0.0000)

Unit cell:
           periodic     x           y           z      points  spacing
  1. axis:    no    16.000000    0.000000    0.000000    70     0.2286
  2. axis:    no     0.000000   16.000000    0.000000    70     0.2286
  3. axis:    no     0.000000    0.000000   16.000000    70     0.2286

  Lengths:  16.000000  16.000000  16.000000
  Angles:   90.000000  90.000000  90.000000

Effective grid spacing dv^(1/3) = 0.2286

                     log10-error:    total        iterations:
           time      wfs    density  energy       fermi  poisson
iter:   1  00:18:13  -0.29   +inf    -5.608251    0             
iter:   2  00:18:15  -1.17  -1.31    -5.603577    0             
iter:   3  00:18:16  -1.48  -1.34    -5.461114    0             
iter:   4  00:18:18  -2.00  -1.76    -5.447137    0             
iter:   5  00:18:20  -2.33  -1.77    -5.451806    0             
iter:   6  00:18:22  -2.52  -1.94    -5.455965    0             
iter:   7  00:18:23  -2.97  -2.45    -5.454382    0             
iter:   8  00:18:25  -3.33  -2.66    -5.453496    0             
iter:   9  00:18:27  -3.71  -2.88    -5.453752    0             
iter:  10  00:18:28  -3.89  -2.85    -5.453330    0             
iter:  11  00:18:30  -4.47  -3.50    -5.453310    0             
iter:  12  00:18:32  -4.79  -3.55    -5.453345    0             
iter:  13  00:18:34  -5.06  -3.43    -5.453302    0             
iter:  14  00:18:35  -5.38  -3.66    -5.453298    0             
iter:  15  00:18:37  -5.68  -3.79    -5.453300    0             
iter:  16  00:18:39  -5.79  -3.67    -5.453296    0             
iter:  17  00:18:40  -6.16  -3.79    -5.453297    0             
iter:  18  00:18:42  -6.42  -3.83    -5.453294    0             
iter:  19  00:18:44  -6.32  -3.84    -5.453295    0             
iter:  20  00:18:46  -6.49  -3.86    -5.453295    0             
iter:  21  00:18:47  -7.28  -4.05    -5.453294    0             
iter:  22  00:18:49  -6.88  -4.08    -5.453293    0             
iter:  23  00:18:51  -7.73  -4.45    -5.453293    0             

Converged after 23 iterations.

Dipole moment: (-0.064654, -0.103123, -0.043931) |e|*Ang

Energy contributions relative to reference atoms: (reference = -26392.251266)

Kinetic:         +4.696290
Potential:       -4.232597
External:        +0.000000
XC:              -5.715858
Entropy (-ST):   +0.000000
Local:           -0.201128
--------------------------
Free energy:     -5.453293
Extrapolated:    -5.453293

Fermi level: -2.35073

 Band  Eigenvalues  Occupancy
    0    -27.94241    2.00000
    1    -27.94169    2.00000
    2    -27.93972    2.00000
    3    -27.93363    2.00000
    4    -27.93227    2.00000
    5    -27.93163    2.00000
    6    -27.93086    2.00000
    7    -27.92929    2.00000
    8    -27.92798    2.00000
    9    -27.92661    2.00000
   10    -27.91836    2.00000
   11    -27.91797    2.00000
   12    -27.90651    2.00000
   13    -27.90608    2.00000
   14    -27.89973    2.00000
   15    -27.83330    2.00000
   16    -27.80470    2.00000
   17    -27.80459    2.00000
   18     -4.10845    2.00000
   19     -2.93549    2.00000
   20     -2.92754    2.00000
   21     -1.77392    0.00000
   22     -1.62243    0.00000
   23     -1.61377    0.00000
   24     -1.33019    0.00000
   25     -0.73666    0.00000
   26     -0.72536    0.00000
   27     -0.36461    0.00000
   28     -0.33586    0.00000
   29     -0.28590    0.00000

Gap: 1.154 eV
Transition (v -> c):
  (s=0, k=0, n=20, [0.00, 0.00, 0.00]) -> (s=0, k=0, n=21, [0.00, 0.00, 0.00])
Timing:                              incl.     excl.
-----------------------------------------------------------
Hamiltonian:                         0.653     0.006   0.0% |
 Atomic:                             0.083     0.001   0.0% |
  XC Correction:                     0.082     0.082   0.2% |
 Calculate atomic Hamiltonians:      0.110     0.110   0.3% |
 Communicate:                        0.000     0.000   0.0% |
 Initialize Hamiltonian:             0.000     0.000   0.0% |
 Poisson:                            0.014     0.014   0.0% |
 XC 3D grid:                         0.441     0.441   1.0% |
LCAO initialization:                 0.265     0.031   0.1% |
 LCAO eigensolver:                   0.032     0.000   0.0% |
  Calculate projections:             0.000     0.000   0.0% |
  DenseAtomicCorrection:             0.000     0.000   0.0% |
  Distribute overlap matrix:         0.000     0.000   0.0% |
  Orbital Layouts:                   0.000     0.000   0.0% |
  Potential matrix:                  0.031     0.031   0.1% |
 LCAO to grid:                       0.173     0.173   0.4% |
 Set positions (LCAO WFS):           0.029     0.005   0.0% |
  Basic WFS set positions:           0.000     0.000   0.0% |
  Basis functions set positions:     0.000     0.000   0.0% |
  P tci:                             0.016     0.016   0.0% |
  ST tci:                            0.003     0.003   0.0% |
  mktci:                             0.005     0.005   0.0% |
PWDescriptor:                        0.013     0.013   0.0% |
SCF-cycle:                          38.572     0.295   0.7% |
 Davidson:                          18.283     2.354   5.6% |-|
  Apply H:                           3.487     3.394   8.0% |--|
   HMM T:                            0.094     0.094   0.2% |
  Subspace diag:                     3.940     0.003   0.0% |
   calc_h_matrix:                    3.599     0.110   0.3% |
    Apply H:                         3.489     3.394   8.0% |--|
     HMM T:                          0.096     0.096   0.2% |
   diagonalize:                      0.008     0.008   0.0% |
   rotate_psi:                       0.330     0.330   0.8% |
  calc. matrices:                    7.805     0.836   2.0% ||
   Apply H:                          6.969     6.780  16.0% |-----|
    HMM T:                           0.188     0.188   0.4% |
  diagonalize:                       0.038     0.038   0.1% |
  rotate_psi:                        0.658     0.658   1.6% ||
 Density:                            5.742     0.000   0.0% |
  Atomic density matrices:           0.020     0.020   0.0% |
  Mix:                               3.971     3.971   9.4% |---|
  Multipole moments:                 0.005     0.005   0.0% |
  Pseudo density:                    1.745     1.745   4.1% |-|
   Symmetrize density:               0.000     0.000   0.0% |
 Hamiltonian:                       14.219     0.128   0.3% |
  Atomic:                            1.823     0.021   0.0% |
   XC Correction:                    1.803     1.803   4.3% |-|
  Calculate atomic Hamiltonians:     2.428     2.428   5.7% |-|
  Communicate:                       0.000     0.000   0.0% |
  Poisson:                           0.235     0.235   0.6% |
  XC 3D grid:                        9.605     9.605  22.7% |--------|
 Orthonormalize:                     0.034     0.000   0.0% |
  calc_s_matrix:                     0.004     0.004   0.0% |
  inverse-cholesky:                  0.000     0.000   0.0% |
  projections:                       0.022     0.022   0.1% |
  rotate_psi_s:                      0.007     0.007   0.0% |
Set symmetry:                        0.001     0.001   0.0% |
Other:                               2.885     2.885   6.8% |--|
-----------------------------------------------------------
Total:                                        42.388 100.0%

Memory usage: 885.10 MiB
Date: Thu Feb 13 00:18:51 2020
