
  ___ ___ ___ _ _ _  
 |   |   |_  | | | | 
 | | | | | . | | | | 
 |__ |  _|___|_____|  19.8.1
 |___|_|             

User:   hallborn@hebbe12-5
Date:   Sat Feb 15 00:38:31 2020
Arch:   x86_64
Pid:    14746
Python: 3.7.2
gpaw:   /apps/Hebbe7/software/MPI/intel/2019.1.144-GCC-8.2.0-2.31.1/impi/2018.4.274/GPAW/19.8.1-Python-3.7.2/lib/python3.7/site-packages/gpaw
_gpaw:  /apps/Hebbe7/software/MPI/intel/2019.1.144-GCC-8.2.0-2.31.1/impi/2018.4.274/GPAW/19.8.1-Python-3.7.2/bin/
        gpaw-python
ase:    /apps/Hebbe7/software/MPI/intel/2019.1.144-GCC-8.2.0-2.31.1/impi/2018.4.274/ASE/3.18.0-Python-3.7.2/lib/python3.7/site-packages/ase (version 3.18.0)
numpy:  /apps/Hebbe7/software/MPI/intel/2019.1.144-GCC-8.2.0-2.31.1/impi/2018.4.274/SciPy-bundle/2019.03/lib/python3.7/site-packages/numpy (version 1.16.2)
scipy:  /apps/Hebbe7/software/MPI/intel/2019.1.144-GCC-8.2.0-2.31.1/impi/2018.4.274/SciPy-bundle/2019.03/lib/python3.7/site-packages/scipy (version 1.2.1)
libxc:  4.3.4
units:  Angstrom and eV
cores:  1

Input parameters:
  mode: lcao

System changes: positions, numbers, cell, pbc, initial_charges, initial_magmoms 

Initialize ...

Na-setup:
  name: Sodium
  id: 74d681ec425db66acd6a232eb07f04e6
  Z: 11
  valence: 7
  core: 4
  charge: 0.0
  file: /apps/Common/Core/GPAW-setups/0.9.20000/Na.LDA.gz
  compensation charges: gauss, rc=0.37, lmax=2
  cutoffs: 2.17(filt), 2.59(core),
  valence states:
                energy  radius
    3s(1.00)    -2.819   1.201
    2p(6.00)   -28.826   1.217
    3p(0.00)    -0.774   1.217
    *s          24.392   1.201
    *d           0.000   1.238

  Using partial waves for Na as LCAO basis

Reference energy: -26392.251266

Spin-paired calculation

Occupation numbers:
  Fermi-Dirac: width=0.0000 eV

Convergence criteria:
  Maximum total energy change: 0.0005 eV / electron
  Maximum integral of absolute density change: 0.0001 electrons
  Maximum integral of absolute eigenstate change: 4e-08 eV^2
  Maximum number of iterations: 333

Symmetries present (total): 1

  ( 1  0  0)
  ( 0  1  0)
  ( 0  0  1)

1 k-point (Gamma)
1 k-point in the irreducible part of the Brillouin zone
       k-points in crystal coordinates                weights
   0:     0.00000000    0.00000000    0.00000000          1/1

Wave functions: LCAO
  Diagonalizer: Serial LAPACK
  Atomic Correction: dense with blas
  Datatype: float
 

Eigensolver
   LCAO using direct dense diagonalizer 

Densities:
  Coarse grid: 80*80*80 grid
  Fine grid: 160*160*160 grid
  Total Charge: 0.000000 

Density mixing:
  Method: separate
  Backend: pulay
  Linear mixing parameter: 0.25
  Mixing with 3 old densities
  No damping of long wave oscillations 

Hamiltonian:
  XC and Coulomb potentials evaluated on a 160*160*160 grid
  Using the LDA Exchange-Correlation functional
  Interpolation: tri-quintic (5. degree polynomial)
  Poisson solver: FastPoissonSolver using
    6*3+1=19 point O(h^6) finite-difference Laplacian stencil;
    FFT axes: [];
    FST axes: [0, 1, 2].
 

Memory estimate:
  Process memory now: 449.83 MiB
  Calculator: 228.55 MiB
    Density: 148.73 MiB
      Arrays: 99.53 MiB
      Localized functions: 26.63 MiB
      Mixer: 22.57 MiB
    Hamiltonian: 67.06 MiB
      Arrays: 65.10 MiB
      XC: 0.00 MiB
      Poisson: 0.00 MiB
      vbar: 1.96 MiB
    Wavefunctions: 12.77 MiB
      C [qnM]: 0.01 MiB
      S, T [2 x qmm]: 0.03 MiB
      P [aqMi]: 0.00 MiB
      BasisFunctions: 12.73 MiB
      Eigensolver: 0.00 MiB

Total number of cores used: 1

Number of atoms: 6
Number of atomic orbitals: 42
Number of bands in calculation: 30
Bands to converge: occupied states only
Number of valence electrons: 42

... initialized

Initializing position-dependent things.

Density initialized from atomic densities
           .--------------------------------------.  
          /|                                      |  
         / |                                      |  
        /  |                                      |  
       /   |                                      |  
      /    |                                      |  
     /     |                                      |  
    /      |                                      |  
   /       |                                      |  
  /        |                                      |  
 *         |           Na                         |  
 |         |                                      |  
 |         |                Na                    |  
 |         |                                      |  
 |         |            Na                        |  
 |         |                    Na                |  
 |         |                                      |  
 |         |                Na                    |  
 |         |                                      |  
 |         |             Na                       |  
 |         .--------------------------------------.  
 |        /                                      /   
 |       /                                      /    
 |      /                                      /     
 |     /                                      /      
 |    /                                      /       
 |   /                                      /        
 |  /                                      /         
 | /                                      /          
 |/                                      /           
 *--------------------------------------*            

Positions:
   0 Na    11.424955    5.046215    9.661160    ( 0.0000,  0.0000,  0.0000)
   1 Na     9.091214    7.135542   10.719357    ( 0.0000,  0.0000,  0.0000)
   2 Na     6.710298    9.263471   11.516303    ( 0.0000,  0.0000,  0.0000)
   3 Na     7.680133    8.011559    5.125248    ( 0.0000,  0.0000,  0.0000)
   4 Na     9.624253    6.463545    7.292195    ( 0.0000,  0.0000,  0.0000)
   5 Na     7.055205    8.690646    8.283979    ( 0.0000,  0.0000,  0.0000)

Unit cell:
           periodic     x           y           z      points  spacing
  1. axis:    no    16.000000    0.000000    0.000000    80     0.2000
  2. axis:    no     0.000000   16.000000    0.000000    80     0.2000
  3. axis:    no     0.000000    0.000000   16.000000    80     0.2000

  Lengths:  16.000000  16.000000  16.000000
  Angles:   90.000000  90.000000  90.000000

Effective grid spacing dv^(1/3) = 0.2000

                     log10-error:    total        iterations:
           time      wfs    density  energy       fermi  poisson
iter:   1  00:38:41          +inf    -4.433235    0      1      
iter:   2  00:38:43         -1.36    -4.256851    0      1      
iter:   3  00:38:44         -1.56    -4.208060    0      1      
iter:   4  00:38:46         -1.94    -4.198403    0      1      
iter:   5  00:38:48         -2.79    -4.198097    0      1      
iter:   6  00:38:50         -3.25    -4.198082    0      1      
iter:   7  00:38:51         -3.40    -4.198066    0      1      
iter:   8  00:38:53         -4.37    -4.198066    0      1      

Converged after 8 iterations.

Dipole moment: (0.003816, 0.001469, 0.003082) |e|*Ang

Energy contributions relative to reference atoms: (reference = -26392.251266)

Kinetic:        +18.981386
Potential:      -15.878113
External:        +0.000000
XC:              -7.325498
Entropy (-ST):   +0.000000
Local:           +0.024158
--------------------------
Free energy:     -4.198066
Extrapolated:    -4.198066

Fermi level: -2.04991

 Band  Eigenvalues  Occupancy
    0    -27.73131    2.00000
    1    -27.73097    2.00000
    2    -27.72943    2.00000
    3    -27.72778    2.00000
    4    -27.72513    2.00000
    5    -27.72408    2.00000
    6    -27.72086    2.00000
    7    -27.71939    2.00000
    8    -27.71566    2.00000
    9    -27.63300    2.00000
   10    -27.61527    2.00000
   11    -27.61510    2.00000
   12    -27.61447    2.00000
   13    -27.61291    2.00000
   14    -27.61228    2.00000
   15    -27.58901    2.00000
   16    -27.58830    2.00000
   17    -27.58386    2.00000
   18     -3.78267    2.00000
   19     -2.76828    2.00000
   20     -2.76662    2.00000
   21     -1.33320    0.00000
   22     -1.21784    0.00000
   23     -1.21393    0.00000
   24     -0.73785    0.00000
   25      0.15183    0.00000
   26      0.15641    0.00000
   27      0.23614    0.00000
   28      0.27529    0.00000
   29      0.27823    0.00000

Gap: 1.433 eV
Transition (v -> c):
  (s=0, k=0, n=20, [0.00, 0.00, 0.00]) -> (s=0, k=0, n=21, [0.00, 0.00, 0.00])

Forces in eV/Ang:
  0 Na    0.06903   -0.05839    0.02383
  1 Na    0.01789   -0.01277    0.03823
  2 Na   -0.05184    0.04891    0.07083
  3 Na   -0.02383    0.01327   -0.09819
  4 Na    0.01716   -0.01717   -0.03030
  5 Na   -0.02803    0.02691   -0.00300

System changes: positions 

Initializing position-dependent things.

Density initialized from wave functions
           .--------------------------------------.  
          /|                                      |  
         / |                                      |  
        /  |                                      |  
       /   |                                      |  
      /    |                                      |  
     /     |                                      |  
    /      |                                      |  
   /       |                                      |  
  /        |                                      |  
 *         |           Na                         |  
 |         |                                      |  
 |         |                Na                    |  
 |         |                                      |  
 |         |            Na                        |  
 |         |                    Na                |  
 |         |                                      |  
 |         |                Na                    |  
 |         |                                      |  
 |         |             Na                       |  
 |         .--------------------------------------.  
 |        /                                      /   
 |       /                                      /    
 |      /                                      /     
 |     /                                      /      
 |    /                                      /       
 |   /                                      /        
 |  /                                      /         
 | /                                      /          
 |/                                      /           
 *--------------------------------------*            

Positions:
   0 Na    11.425941    5.045380    9.661501    ( 0.0000,  0.0000,  0.0000)
   1 Na     9.091469    7.135359   10.719904    ( 0.0000,  0.0000,  0.0000)
   2 Na     6.709557    9.264170   11.517314    ( 0.0000,  0.0000,  0.0000)
   3 Na     7.679792    8.011748    5.123845    ( 0.0000,  0.0000,  0.0000)
   4 Na     9.624499    6.463299    7.291762    ( 0.0000,  0.0000,  0.0000)
   5 Na     7.054804    8.691030    8.283936    ( 0.0000,  0.0000,  0.0000)

Unit cell:
           periodic     x           y           z      points  spacing
  1. axis:    no    16.000000    0.000000    0.000000    80     0.2000
  2. axis:    no     0.000000   16.000000    0.000000    80     0.2000
  3. axis:    no     0.000000    0.000000   16.000000    80     0.2000

  Lengths:  16.000000  16.000000  16.000000
  Angles:   90.000000  90.000000  90.000000

Effective grid spacing dv^(1/3) = 0.2000

                     log10-error:    total        iterations:
           time      wfs    density  energy       fermi  poisson
iter:   1  00:38:55          +inf    -4.198552    0      1      
iter:   2  00:38:57         -4.51    -4.198552    0      1      
iter:   3  00:38:59         -4.68    -4.198552    0      1      

Converged after 3 iterations.

Dipole moment: (0.003847, 0.001390, 0.003085) |e|*Ang

Energy contributions relative to reference atoms: (reference = -26392.251266)

Kinetic:        +18.963606
Potential:      -15.865445
External:        +0.000000
XC:              -7.320944
Entropy (-ST):   +0.000000
Local:           +0.024232
--------------------------
Free energy:     -4.198552
Extrapolated:    -4.198552

Fermi level: -2.04986

 Band  Eigenvalues  Occupancy
    0    -27.73093    2.00000
    1    -27.73063    2.00000
    2    -27.72903    2.00000
    3    -27.72740    2.00000
    4    -27.72476    2.00000
    5    -27.72366    2.00000
    6    -27.72059    2.00000
    7    -27.71905    2.00000
    8    -27.71534    2.00000
    9    -27.63311    2.00000
   10    -27.61543    2.00000
   11    -27.61528    2.00000
   12    -27.61466    2.00000
   13    -27.61314    2.00000
   14    -27.61254    2.00000
   15    -27.58911    2.00000
   16    -27.58846    2.00000
   17    -27.58401    2.00000
   18     -3.78163    2.00000
   19     -2.76792    2.00000
   20     -2.76626    2.00000
   21     -1.33346    0.00000
   22     -1.21803    0.00000
   23     -1.21420    0.00000
   24     -0.73685    0.00000
   25      0.15114    0.00000
   26      0.15570    0.00000
   27      0.23574    0.00000
   28      0.27564    0.00000
   29      0.27859    0.00000

Gap: 1.433 eV
Transition (v -> c):
  (s=0, k=0, n=20, [0.00, 0.00, 0.00]) -> (s=0, k=0, n=21, [0.00, 0.00, 0.00])

Forces in eV/Ang:
  0 Na    0.06848   -0.05797    0.02362
  1 Na    0.01728   -0.01233    0.03637
  2 Na   -0.05139    0.04853    0.07012
  3 Na   -0.02358    0.01322   -0.09713
  4 Na    0.01614   -0.01621   -0.02886
  5 Na   -0.02652    0.02569   -0.00269

System changes: positions 

Initializing position-dependent things.

Density initialized from wave functions
           .--------------------------------------.  
          /|                                      |  
         / |                                      |  
        /  |                                      |  
       /   |                                      |  
      /    |                                      |  
     /     |                                      |  
    /      |                                      |  
   /       |                                      |  
  /        |                                      |  
 *         |           Na                         |  
 |         |                                      |  
 |         |                Na                    |  
 |         |                                      |  
 |         |            Na                        |  
 |         |                    Na                |  
 |         |                                      |  
 |         |                 Na                   |  
 |         |                                      |  
 |         |             Na                       |  
 |         .--------------------------------------.  
 |        /                                      /   
 |       /                                      /    
 |      /                                      /     
 |     /                                      /      
 |    /                                      /       
 |   /                                      /        
 |  /                                      /         
 | /                                      /          
 |/                                      /           
 *--------------------------------------*            

Positions:
   0 Na    11.453110    5.022383    9.670870    ( 0.0000,  0.0000,  0.0000)
   1 Na     9.098327    7.130466   10.734340    ( 0.0000,  0.0000,  0.0000)
   2 Na     6.689169    9.283424   11.545132    ( 0.0000,  0.0000,  0.0000)
   3 Na     7.670437    8.016991    5.085310    ( 0.0000,  0.0000,  0.0000)
   4 Na     9.630908    6.456866    7.280308    ( 0.0000,  0.0000,  0.0000)
   5 Na     7.044278    8.701229    8.282867    ( 0.0000,  0.0000,  0.0000)

Unit cell:
           periodic     x           y           z      points  spacing
  1. axis:    no    16.000000    0.000000    0.000000    80     0.2000
  2. axis:    no     0.000000   16.000000    0.000000    80     0.2000
  3. axis:    no     0.000000    0.000000   16.000000    80     0.2000

  Lengths:  16.000000  16.000000  16.000000
  Angles:   90.000000  90.000000  90.000000

Effective grid spacing dv^(1/3) = 0.2000

                     log10-error:    total        iterations:
           time      wfs    density  energy       fermi  poisson
iter:   1  00:39:01          +inf    -4.208893    0      1      
iter:   2  00:39:03         -3.02    -4.208804    0      1      
iter:   3  00:39:05         -3.24    -4.208761    0      1      
iter:   4  00:39:06         -3.63    -4.208754    0      1      
iter:   5  00:39:08         -4.70    -4.208754    0      1      

Converged after 5 iterations.

Dipole moment: (0.004039, 0.000986, 0.002894) |e|*Ang

Energy contributions relative to reference atoms: (reference = -26392.251266)

Kinetic:        +17.767774
Potential:      -14.884555
External:        +0.000000
XC:              -7.115056
Entropy (-ST):   +0.000000
Local:           +0.023083
--------------------------
Free energy:     -4.208754
Extrapolated:    -4.208754

Fermi level: -2.04856

 Band  Eigenvalues  Occupancy
    0    -27.73312    2.00000
    1    -27.73195    2.00000
    2    -27.73076    2.00000
    3    -27.72864    2.00000
    4    -27.72744    2.00000
    5    -27.72491    2.00000
    6    -27.72440    2.00000
    7    -27.72255    2.00000
    8    -27.71942    2.00000
    9    -27.64497    2.00000
   10    -27.62928    2.00000
   11    -27.62833    2.00000
   12    -27.62793    2.00000
   13    -27.62726    2.00000
   14    -27.62686    2.00000
   15    -27.60010    2.00000
   16    -27.59981    2.00000
   17    -27.59543    2.00000
   18     -3.75487    2.00000
   19     -2.75710    2.00000
   20     -2.75490    2.00000
   21     -1.34222    0.00000
   22     -1.22088    0.00000
   23     -1.21905    0.00000
   24     -0.70984    0.00000
   25      0.13296    0.00000
   26      0.13662    0.00000
   27      0.22804    0.00000
   28      0.28661    0.00000
   29      0.29015    0.00000

Gap: 1.413 eV
Transition (v -> c):
  (s=0, k=0, n=20, [0.00, 0.00, 0.00]) -> (s=0, k=0, n=21, [0.00, 0.00, 0.00])

Forces in eV/Ang:
  0 Na    0.04121   -0.03498    0.01379
  1 Na    0.00708   -0.00476    0.01656
  2 Na   -0.02861    0.02508    0.03935
  3 Na   -0.01303    0.00642   -0.05525
  4 Na    0.00469   -0.00620   -0.01403
  5 Na   -0.00957    0.01136   -0.00100

System changes: positions 

Initializing position-dependent things.

Density initialized from wave functions
           .--------------------------------------.  
          /|                                      |  
         / |                                      |  
        /  |                                      |  
       /   |                                      |  
      /    |                                      |  
     /     |                                      |  
    /      |                                      |  
   /       |                                      |  
  /        |                                      |  
 *         |           Na                         |  
 |         |                                      |  
 |         |                Na                    |  
 |         |                                      |  
 |         |            Na                        |  
 |         |                    Na                |  
 |         |                                      |  
 |         |                 Na                   |  
 |         |                                      |  
 |         |             Na                       |  
 |         .--------------------------------------.  
 |        /                                      /   
 |       /                                      /    
 |      /                                      /     
 |     /                                      /      
 |    /                                      /       
 |   /                                      /        
 |  /                                      /         
 | /                                      /          
 |/                                      /           
 *--------------------------------------*            

Positions:
   0 Na    11.480340    4.999330    9.680251    ( 0.0000,  0.0000,  0.0000)
   1 Na     9.105115    7.125629   10.748674    ( 0.0000,  0.0000,  0.0000)
   2 Na     6.668794    9.302615   11.572940    ( 0.0000,  0.0000,  0.0000)
   3 Na     7.661089    8.022207    5.046768    ( 0.0000,  0.0000,  0.0000)
   4 Na     9.637203    6.450508    7.268913    ( 0.0000,  0.0000,  0.0000)
   5 Na     7.033891    8.711346    8.281811    ( 0.0000,  0.0000,  0.0000)

Unit cell:
           periodic     x           y           z      points  spacing
  1. axis:    no    16.000000    0.000000    0.000000    80     0.2000
  2. axis:    no     0.000000   16.000000    0.000000    80     0.2000
  3. axis:    no     0.000000    0.000000   16.000000    80     0.2000

  Lengths:  16.000000  16.000000  16.000000
  Angles:   90.000000  90.000000  90.000000

Effective grid spacing dv^(1/3) = 0.2000

                     log10-error:    total        iterations:
           time      wfs    density  energy       fermi  poisson
iter:   1  00:39:10          +inf    -4.213301    0      1      
iter:   2  00:39:12         -3.01    -4.213207    0      1      
iter:   3  00:39:14         -3.23    -4.213162    0      1      
iter:   4  00:39:15         -3.62    -4.213156    0      1      
iter:   5  00:39:17         -4.71    -4.213155    0      1      

Converged after 5 iterations.

Dipole moment: (0.004476, 0.000409, 0.002797) |e|*Ang

Energy contributions relative to reference atoms: (reference = -26392.251266)

Kinetic:        +16.645422
Potential:      -13.962830
External:        +0.000000
XC:              -6.917929
Entropy (-ST):   +0.000000
Local:           +0.022182
--------------------------
Free energy:     -4.213155
Extrapolated:    -4.213155

Fermi level: -2.04734

 Band  Eigenvalues  Occupancy
    0    -27.73640    2.00000
    1    -27.73451    2.00000
    2    -27.73324    2.00000
    3    -27.73115    2.00000
    4    -27.73017    2.00000
    5    -27.72886    2.00000
    6    -27.72704    2.00000
    7    -27.72693    2.00000
    8    -27.72432    2.00000
    9    -27.65745    2.00000
   10    -27.64379    2.00000
   11    -27.64200    2.00000
   12    -27.64184    2.00000
   13    -27.64160    2.00000
   14    -27.64145    2.00000
   15    -27.61197    2.00000
   16    -27.61147    2.00000
   17    -27.60739    2.00000
   18     -3.72868    2.00000
   19     -2.74674    2.00000
   20     -2.74334    2.00000
   21     -1.35133    0.00000
   22     -1.22443    0.00000
   23     -1.22351    0.00000
   24     -0.68352    0.00000
   25      0.11505    0.00000
   26      0.11793    0.00000
   27      0.22054    0.00000
   28      0.29745    0.00000
   29      0.30202    0.00000

Gap: 1.392 eV
Transition (v -> c):
  (s=0, k=0, n=20, [0.00, 0.00, 0.00]) -> (s=0, k=0, n=21, [0.00, 0.00, 0.00])

Forces in eV/Ang:
  0 Na    0.01299   -0.01039    0.00385
  1 Na   -0.00307    0.00281   -0.00229
  2 Na   -0.00655    0.00463    0.01062
  3 Na   -0.00515    0.00171   -0.01469
  4 Na   -0.00625    0.00382    0.00025
  5 Na    0.00725   -0.00209    0.00154

Timing:                                       incl.     excl.
--------------------------------------------------------------------
Basic WFS set positions:                      0.003     0.002   0.0% |
 Redistribute:                                0.001     0.001   0.0% |
Basis functions set positions:                0.106     0.106   0.1% |
Forces:                                       1.752     0.532   0.6% |
 LCAO forces:                                 1.220     0.002   0.0% |
  Atomic Hamiltonian force:                   0.006     0.006   0.0% |
  Initial:                                    0.000     0.000   0.0% |
   Get density matrix:                        0.000     0.000   0.0% |
  Paw correction:                             0.005     0.005   0.0% |
  Potential:                                  1.102     1.102   1.2% |
  TCI derivative:                             0.104     0.104   0.1% |
  Wait for sum:                               0.000     0.000   0.0% |
LCAO WFS Initialize:                          6.711     0.145   0.2% |
 Density initialized from wave functions:     0.606     0.432   0.5% |
  Calculate density matrix:                   0.000     0.000   0.0% |
  Construct density:                          0.173     0.173   0.2% |
  Symmetrize density:                         0.000     0.000   0.0% |
 Hamiltonian:                                 5.961     0.001   0.0% |
  Atomic:                                     0.363     0.005   0.0% |
   XC Correction:                             0.359     0.359   0.4% |
  Calculate atomic Hamiltonians:              0.047     0.047   0.0% |
  Communicate:                                0.000     0.000   0.0% |
  Hartree integrate/restrict:                 0.414     0.414   0.4% |
  Initialize Hamiltonian:                     0.000     0.000   0.0% |
  Poisson:                                    2.524     0.185   0.2% |
   Communicate bwd 0:                         0.296     0.296   0.3% |
   Communicate bwd 1:                         0.195     0.195   0.2% |
   Communicate fwd 0:                         0.350     0.350   0.4% |
   Communicate fwd 1:                         0.328     0.328   0.3% |
   fft:                                       0.294     0.294   0.3% |
   fft2:                                      0.876     0.876   0.9% |
  XC 3D grid:                                 2.548     2.548   2.7% ||
  vbar:                                       0.064     0.064   0.1% |
P tci:                                        0.051     0.051   0.1% |
Redistribute:                                 0.001     0.001   0.0% |
SCF-cycle:                                   29.386     0.007   0.0% |
 Density:                                     3.441     0.001   0.0% |
  Atomic density matrices:                    0.018     0.018   0.0% |
  Mix:                                        2.370     2.370   2.5% ||
  Multipole moments:                          0.004     0.004   0.0% |
  Normalize:                                  0.011     0.011   0.0% |
  Pseudo density:                             1.038     0.044   0.0% |
   Calculate density matrix:                  0.001     0.001   0.0% |
   Construct density:                         0.992     0.992   1.0% |
   Symmetrize density:                        0.001     0.001   0.0% |
 Hamiltonian:                                24.851     0.002   0.0% |
  Atomic:                                     1.546     0.019   0.0% |
   XC Correction:                             1.527     1.527   1.6% ||
  Calculate atomic Hamiltonians:              0.163     0.163   0.2% |
  Communicate:                                0.000     0.000   0.0% |
  Hartree integrate/restrict:                 1.702     1.702   1.8% ||
  Poisson:                                   10.583     0.611   0.6% |
   Communicate bwd 0:                         1.258     1.258   1.3% ||
   Communicate bwd 1:                         0.832     0.832   0.9% |
   Communicate fwd 0:                         1.501     1.501   1.6% ||
   Communicate fwd 1:                         1.399     1.399   1.5% ||
   fft:                                       1.245     1.245   1.3% ||
   fft2:                                      3.736     3.736   3.9% |-|
  XC 3D grid:                                10.651    10.651  11.2% |---|
  vbar:                                       0.202     0.202   0.2% |
 LCAO eigensolver:                            1.086     0.003   0.0% |
  Calculate projections:                      0.002     0.002   0.0% |
  DenseAtomicCorrection:                      0.007     0.007   0.0% |
  Distribute overlap matrix:                  0.001     0.001   0.0% |
  Orbital Layouts:                            0.011     0.011   0.0% |
  Potential matrix:                           1.063     1.063   1.1% |
ST tci:                                       0.015     0.015   0.0% |
Set symmetry:                                 0.001     0.001   0.0% |
TCI: Evaluate splines:                        0.036     0.036   0.0% |
mktci:                                        0.005     0.005   0.0% |
Other:                                       56.684    56.684  59.8% |-----------------------|
--------------------------------------------------------------------
Total:                                                 94.750 100.0%

Memory usage: 928.00 MiB
Date: Sat Feb 15 00:40:06 2020
