
  ___ ___ ___ _ _ _  
 |   |   |_  | | | | 
 | | | | | . | | | | 
 |__ |  _|___|_____|  19.8.1
 |___|_|             

User:   hallborn@hebbe12-5
Date:   Tue Feb 18 11:10:19 2020
Arch:   x86_64
Pid:    2288
Python: 3.7.2
gpaw:   /apps/Hebbe7/software/MPI/intel/2019.1.144-GCC-8.2.0-2.31.1/impi/2018.4.274/GPAW/19.8.1-Python-3.7.2/lib/python3.7/site-packages/gpaw
_gpaw:  /apps/Hebbe7/software/MPI/intel/2019.1.144-GCC-8.2.0-2.31.1/impi/2018.4.274/GPAW/19.8.1-Python-3.7.2/bin/
        gpaw-python
ase:    /apps/Hebbe7/software/MPI/intel/2019.1.144-GCC-8.2.0-2.31.1/impi/2018.4.274/ASE/3.18.0-Python-3.7.2/lib/python3.7/site-packages/ase (version 3.18.0)
numpy:  /apps/Hebbe7/software/MPI/intel/2019.1.144-GCC-8.2.0-2.31.1/impi/2018.4.274/SciPy-bundle/2019.03/lib/python3.7/site-packages/numpy (version 1.16.2)
scipy:  /apps/Hebbe7/software/MPI/intel/2019.1.144-GCC-8.2.0-2.31.1/impi/2018.4.274/SciPy-bundle/2019.03/lib/python3.7/site-packages/scipy (version 1.2.1)
libxc:  4.3.4
units:  Angstrom and eV
cores:  1

Input parameters:
  basis: dzp
  h: 0.2
  mode: {ecut: 350.0,
         gammacentered: False,
         name: pw}
  setups: {Na: 1}
  xc: PBE

System changes: positions, numbers, cell, pbc, initial_charges, initial_magmoms 

Initialize ...

Na-setup:
  name: Sodium
  id: 8dbce52902f3add137ce7d12431c9cac
  Z: 11
  valence: 1
  core: 10
  charge: 0.0
  file: /apps/Common/Core/GPAW-setups/0.9.20000/Na.1.PBE.gz
  compensation charges: gauss, rc=0.43, lmax=2
  cutoffs: 2.36(filt), 3.60(core),
  valence states:
                energy  radius
    3s(1.00)    -2.744   1.349
    3p(0.00)    -0.743   1.349
    *s          24.468   1.349

  LCAO basis set for Na:
    Name: 1.dzp
    File: /apps/Common/Core/GPAW-setups/0.9.20000/Na.1.dzp.basis.gz
    Number of radial functions: 3
    Number of spherical harmonics: 5
      l=0, rc=11.7656 Bohr: 3s-sz confined orbital
      l=0, rc=7.1094 Bohr: 3s-dz split-valence wave
      l=1, rc=11.7656 Bohr: p-type Gaussian polarization

Reference energy: -26511.662975

Spin-paired calculation

Occupation numbers:
  Fermi-Dirac: width=0.0000 eV

Convergence criteria:
  Maximum total energy change: 0.0005 eV / electron
  Maximum integral of absolute density change: 0.0001 electrons
  Maximum integral of absolute eigenstate change: 4e-08 eV^2
  Maximum number of iterations: 333

Symmetries present (total): 1

  ( 1  0  0)
  ( 0  1  0)
  ( 0  0  1)

1 k-point (Gamma)
1 k-point in the irreducible part of the Brillouin zone
       k-points in crystal coordinates                weights
   0:     0.00000000    0.00000000    0.00000000          1/1

Wave functions: Plane wave expansion
  Cutoff energy: 350.000 eV
  Number of coefficients: 61037 (reduced to 30519)
  Pulay-stress correction: 0.000000 eV/Ang^3 (de/decut=0.000000)
  Using FFTW library
  ScaLapack parameters: grid=1x1, blocksize=None
  Wavefunction extrapolation:
    Improved wavefunction reuse through dual PAW basis 

Eigensolver
   Davidson(niter=2, smin=None, normalize=True) 

Densities:
  Coarse grid: 80*80*80 grid
  Fine grid: 160*160*160 grid
  Total Charge: 0.000000 

Density mixing:
  Method: separate
  Backend: pulay
  Linear mixing parameter: 0.05
  Mixing with 5 old densities
  Damping of long wave oscillations: 50 

Hamiltonian:
  XC and Coulomb potentials evaluated on a 160*160*160 grid
  Using the PBE Exchange-Correlation functional
 

XC parameters: PBE with 2 nearest neighbor stencil

Memory estimate:
  Process memory now: 924.31 MiB
  Calculator: 331.04 MiB
    Density: 240.79 MiB
      Arrays: 101.56 MiB
      Localized functions: 100.17 MiB
      Mixer: 39.06 MiB
    Hamiltonian: 68.45 MiB
      Arrays: 66.41 MiB
      XC: 0.00 MiB
      Poisson: 0.00 MiB
      vbar: 2.04 MiB
    Wavefunctions: 21.79 MiB
      Arrays psit_nG: 3.73 MiB
      Eigensolver: 6.06 MiB
      Projections: 0.00 MiB
      Projectors: 1.63 MiB
      PW-descriptor: 10.38 MiB

Total number of cores used: 1

Number of atoms: 6
Number of atomic orbitals: 30
Number of bands in calculation: 8
Bands to converge: occupied states only
Number of valence electrons: 6

... initialized

Initializing position-dependent things.

Density initialized from atomic densities
Creating initial wave functions:
  8 bands from LCAO basis set

           .--------------------------------------.  
          /|                                      |  
         / |                                      |  
        /  |                                      |  
       /   |                                      |  
      /    |                                      |  
     /     |                                      |  
    /      |                                      |  
   /       |                                      |  
  /        |                                      |  
 *         |                                      |  
 |         |          Na                          |  
 |         |                                      |  
 |         |       Na      Na                     |  
 |         |                Na                    |  
 |         |                                      |  
 |         |                                      |  
 |         |             Na   Na                  |  
 |         |                                      |  
 |         |                                      |  
 |         .--------------------------------------.  
 |        /                                      /   
 |       /                                      /    
 |      /                                      /     
 |     /                                      /      
 |    /                                      /       
 |   /                                      /        
 |  /                                      /         
 | /                                      /          
 |/                                      /           
 *--------------------------------------*            

Positions:
   0 Na     8.210231    9.489933    8.656516    ( 0.0000,  0.0000,  0.0000)
   1 Na     6.417931    8.101846   10.968460    ( 0.0000,  0.0000,  0.0000)
   2 Na     5.009862    9.947279    8.321395    ( 0.0000,  0.0000,  0.0000)
   3 Na     7.211492    9.790525    5.577356    ( 0.0000,  0.0000,  0.0000)
   4 Na     9.992557    7.848605    6.505352    ( 0.0000,  0.0000,  0.0000)
   5 Na     9.477264    6.754058    9.822530    ( 0.0000,  0.0000,  0.0000)

Unit cell:
           periodic     x           y           z      points  spacing
  1. axis:    no    16.000000    0.000000    0.000000    80     0.2000
  2. axis:    no     0.000000   16.000000    0.000000    80     0.2000
  3. axis:    no     0.000000    0.000000   16.000000    80     0.2000

  Lengths:  16.000000  16.000000  16.000000
  Angles:   90.000000  90.000000  90.000000

Effective grid spacing dv^(1/3) = 0.2000

                     log10-error:    total        iterations:
           time      wfs    density  energy       fermi  poisson
iter:   1  11:10:29  +0.23   +inf    -5.212777    0             
iter:   2  11:10:34  -1.64  -0.45    -5.139552    0             
iter:   3  11:10:39  -1.73  -0.48    -4.882444    0             
iter:   4  11:10:44  -2.60  -0.96    -4.857221    0             
iter:   5  11:10:49  -3.21  -0.95    -4.859152    0             
iter:   6  11:10:54  -3.16  -1.08    -4.863271    0             
iter:   7  11:11:00  -3.74  -1.49    -4.862922    0             
iter:   8  11:11:05  -4.29  -1.97    -4.863015    0             
iter:   9  11:11:10  -4.89  -2.06    -4.863007    0             
iter:  10  11:11:15  -4.99  -2.11    -4.863047    0             
iter:  11  11:11:20  -5.75  -2.68    -4.863033    0             
iter:  12  11:11:25  -6.82  -3.00    -4.863034    0             
iter:  13  11:11:30  -7.08  -3.08    -4.863036    0             
iter:  14  11:11:35  -8.13  -3.18    -4.863035    0             
iter:  15  11:11:41  -7.78  -3.18    -4.863035    0             
iter:  16  11:11:46  -8.12  -3.19    -4.863035    0             
iter:  17  11:11:51  -8.55  -3.21    -4.863035    0             
iter:  18  11:11:56  -7.88  -3.25    -4.863036    0             
iter:  19  11:12:01  -8.53  -3.34    -4.863036    0             
iter:  20  11:12:06  -8.29  -3.36    -4.863036    0             
iter:  21  11:12:11  -7.77  -3.43    -4.863036    0             
iter:  22  11:12:17  -8.13  -3.65    -4.863036    0             
iter:  23  11:12:22  -8.99  -3.85    -4.863036    0             
iter:  24  11:12:27  -8.61  -3.90    -4.863036    0             
iter:  25  11:12:32  -9.32  -4.04    -4.863036    0             

Converged after 25 iterations.

Dipole moment: (-0.071606, -0.113197, -0.048768) |e|*Ang

Energy contributions relative to reference atoms: (reference = -26511.662975)

Kinetic:        +11.808373
Potential:      -10.600827
External:        +0.000000
XC:              -6.070371
Entropy (-ST):   +0.000000
Local:           -0.000211
--------------------------
Free energy:     -4.863036
Extrapolated:    -4.863036

Fermi level: -2.25396

 Band  Eigenvalues  Occupancy
    0     -4.00167    2.00000
    1     -2.83669    2.00000
    2     -2.82880    2.00000
    3     -1.67913    0.00000
    4     -1.53149    0.00000
    5     -1.52086    0.00000
    6     -1.25680    0.00000
    7     -0.67345    0.00000

Gap: 1.150 eV
Transition (v -> c):
  (s=0, k=0, n=2, [0.00, 0.00, 0.00]) -> (s=0, k=0, n=3, [0.00, 0.00, 0.00])

Forces in eV/Ang:
  0 Na    0.05679    0.11674    0.03778
  1 Na   -0.04989   -0.03919    0.07798
  2 Na   -0.09191    0.02627   -0.00699
  3 Na   -0.02666    0.02250   -0.08927
  4 Na    0.06457   -0.04713   -0.06284
  5 Na    0.04727   -0.07896    0.04348

System changes: positions 

Initializing position-dependent things.

Density initialized from wave functions
           .--------------------------------------.  
          /|                                      |  
         / |                                      |  
        /  |                                      |  
       /   |                                      |  
      /    |                                      |  
     /     |                                      |  
    /      |                                      |  
   /       |                                      |  
  /        |                                      |  
 *         |                                      |  
 |         |          Na                          |  
 |         |                                      |  
 |         |       Na      Na                     |  
 |         |                Na                    |  
 |         |                                      |  
 |         |                                      |  
 |         |             Na   Na                  |  
 |         |                                      |  
 |         |                                      |  
 |         .--------------------------------------.  
 |        /                                      /   
 |       /                                      /    
 |      /                                      /     
 |     /                                      /      
 |    /                                      /       
 |   /                                      /        
 |  /                                      /         
 | /                                      /          
 |/                                      /           
 *--------------------------------------*            

Positions:
   0 Na     8.211042    9.491600    8.657055    ( 0.0000,  0.0000,  0.0000)
   1 Na     6.417218    8.101286   10.969574    ( 0.0000,  0.0000,  0.0000)
   2 Na     5.008549    9.947655    8.321295    ( 0.0000,  0.0000,  0.0000)
   3 Na     7.211111    9.790847    5.576081    ( 0.0000,  0.0000,  0.0000)
   4 Na     9.993480    7.847932    6.504454    ( 0.0000,  0.0000,  0.0000)
   5 Na     9.477939    6.752930    9.823152    ( 0.0000,  0.0000,  0.0000)

Unit cell:
           periodic     x           y           z      points  spacing
  1. axis:    no    16.000000    0.000000    0.000000    80     0.2000
  2. axis:    no     0.000000   16.000000    0.000000    80     0.2000
  3. axis:    no     0.000000    0.000000   16.000000    80     0.2000

  Lengths:  16.000000  16.000000  16.000000
  Angles:   90.000000  90.000000  90.000000

Effective grid spacing dv^(1/3) = 0.2000

                     log10-error:    total        iterations:
           time      wfs    density  energy       fermi  poisson
iter:   1  11:12:43  -4.84   +inf    -4.863998    0             
iter:   2  11:12:48  -5.96  -2.84    -4.863997    0             
iter:   3  11:12:53  -5.85  -2.87    -4.863993    0             
iter:   4  11:12:58  -7.10  -3.10    -4.863990    0             
iter:   5  11:13:03  -7.69  -3.41    -4.863990    0             
iter:   6  11:13:08  -7.59  -3.55    -4.863990    0             
iter:   7  11:13:14  -8.58  -3.58    -4.863990    0             
iter:   8  11:13:19  -9.32  -3.66    -4.863990    0             
iter:   9  11:13:24  -8.49  -3.68    -4.863990    0             
iter:  10  11:13:29  -7.93  -3.86    -4.863990    0             
iter:  11  11:13:34  -9.32  -4.31    -4.863990    0             

Converged after 11 iterations.

Dipole moment: (-0.071532, -0.113013, -0.048718) |e|*Ang

Energy contributions relative to reference atoms: (reference = -26511.662975)

Kinetic:        +11.744964
Potential:      -10.551079
External:        +0.000000
XC:              -6.057623
Entropy (-ST):   +0.000000
Local:           -0.000253
--------------------------
Free energy:     -4.863990
Extrapolated:    -4.863990

Fermi level: -2.25402

 Band  Eigenvalues  Occupancy
    0     -4.00037    2.00000
    1     -2.83637    2.00000
    2     -2.82853    2.00000
    3     -1.67952    0.00000
    4     -1.53200    0.00000
    5     -1.52138    0.00000
    6     -1.25632    0.00000
    7     -0.67392    0.00000

Gap: 1.149 eV
Transition (v -> c):
  (s=0, k=0, n=2, [0.00, 0.00, 0.00]) -> (s=0, k=0, n=3, [0.00, 0.00, 0.00])

Forces in eV/Ang:
  0 Na    0.05578    0.11452    0.03708
  1 Na   -0.04884   -0.03856    0.07614
  2 Na   -0.09002    0.02561   -0.00690
  3 Na   -0.02616    0.02194   -0.08737
  4 Na    0.06305   -0.04632   -0.06146
  5 Na    0.04610   -0.07733    0.04244

System changes: positions 

Initializing position-dependent things.

Density initialized from wave functions
           .--------------------------------------.  
          /|                                      |  
         / |                                      |  
        /  |                                      |  
       /   |                                      |  
      /    |                                      |  
     /     |                                      |  
    /      |                                      |  
   /       |                                      |  
  /        |                                      |  
 *         |                                      |  
 |         |          Na                          |  
 |         |                                      |  
 |         |       Na      NNa                    |  
 |         |                                      |  
 |         |                                      |  
 |         |                                      |  
 |         |             Na   Na                  |  
 |         |                                      |  
 |         |                                      |  
 |         .--------------------------------------.  
 |        /                                      /   
 |       /                                      /    
 |      /                                      /     
 |     /                                      /      
 |    /                                      /       
 |   /                                      /        
 |  /                                      /         
 | /                                      /          
 |/                                      /           
 *--------------------------------------*            

Positions:
   0 Na     8.227860    9.526128    8.668237    ( 0.0000,  0.0000,  0.0000)
   1 Na     6.402493    8.089659   10.992531    ( 0.0000,  0.0000,  0.0000)
   2 Na     4.981406    9.955376    8.319213    ( 0.0000,  0.0000,  0.0000)
   3 Na     7.203223    9.797462    5.549739    ( 0.0000,  0.0000,  0.0000)
   4 Na    10.012489    7.833966    6.485922    ( 0.0000,  0.0000,  0.0000)
   5 Na     9.491838    6.729614    9.835947    ( 0.0000,  0.0000,  0.0000)

Unit cell:
           periodic     x           y           z      points  spacing
  1. axis:    no    16.000000    0.000000    0.000000    80     0.2000
  2. axis:    no     0.000000   16.000000    0.000000    80     0.2000
  3. axis:    no     0.000000    0.000000   16.000000    80     0.2000

  Lengths:  16.000000  16.000000  16.000000
  Angles:   90.000000  90.000000  90.000000

Effective grid spacing dv^(1/3) = 0.2000

                     log10-error:    total        iterations:
           time      wfs    density  energy       fermi  poisson
iter:   1  11:13:45  -2.21   +inf    -4.882517    0             
iter:   2  11:13:50  -3.33  -1.53    -4.881943    0             
iter:   3  11:13:55  -3.22  -1.56    -4.880547    0             
iter:   4  11:14:00  -4.44  -1.77    -4.879317    0             
iter:   5  11:14:05  -5.06  -2.08    -4.879226    0             
iter:   6  11:14:10  -5.02  -2.21    -4.879283    0             
iter:   7  11:14:15  -5.79  -2.28    -4.879221    0             
iter:   8  11:14:20  -5.26  -2.41    -4.879182    0             
iter:   9  11:14:26  -6.00  -3.00    -4.879191    0             
iter:  10  11:14:31  -6.24  -2.79    -4.879184    0             
iter:  11  11:14:36  -6.71  -3.24    -4.879184    0             
iter:  12  11:14:41  -7.63  -3.42    -4.879184    0             
iter:  13  11:14:46  -7.37  -3.46    -4.879184    0             
iter:  14  11:14:51  -8.22  -3.95    -4.879184    0             
iter:  15  11:14:56  -8.82  -4.31    -4.879184    0             

Converged after 15 iterations.

Dipole moment: (-0.071239, -0.110634, -0.048637) |e|*Ang

Energy contributions relative to reference atoms: (reference = -26511.662975)

Kinetic:        +10.511542
Potential:       -9.582733
External:        +0.000000
XC:              -5.807492
Entropy (-ST):   +0.000000
Local:           -0.000501
--------------------------
Free energy:     -4.879184
Extrapolated:    -4.879184

Fermi level: -2.25398

 Band  Eigenvalues  Occupancy
    0     -3.97149    2.00000
    1     -2.82783    2.00000
    2     -2.82103    2.00000
    3     -1.68694    0.00000
    4     -1.54122    0.00000
    5     -1.53073    0.00000
    6     -1.24525    0.00000
    7     -0.68214    0.00000

Gap: 1.134 eV
Transition (v -> c):
  (s=0, k=0, n=2, [0.00, 0.00, 0.00]) -> (s=0, k=0, n=3, [0.00, 0.00, 0.00])

Forces in eV/Ang:
  0 Na    0.03477    0.06816    0.02310
  1 Na   -0.02653   -0.02393    0.04005
  2 Na   -0.05052    0.01373   -0.00379
  3 Na   -0.01494    0.01192   -0.04880
  4 Na    0.03342   -0.02798   -0.03294
  5 Na    0.02386   -0.04169    0.02240

System changes: positions 

Initializing position-dependent things.

Density initialized from wave functions
           .--------------------------------------.  
          /|                                      |  
         / |                                      |  
        /  |                                      |  
       /   |                                      |  
      /    |                                      |  
     /     |                                      |  
    /      |                                      |  
   /       |                                      |  
  /        |                                      |  
 *         |                                      |  
 |         |          Na                          |  
 |         |                                      |  
 |         |       Na      NNa                    |  
 |         |                                      |  
 |         |                                      |  
 |         |                                      |  
 |         |             Na   Na                  |  
 |         |                                      |  
 |         |                                      |  
 |         .--------------------------------------.  
 |        /                                      /   
 |       /                                      /    
 |      /                                      /     
 |     /                                      /      
 |    /                                      /       
 |   /                                      /        
 |  /                                      /         
 | /                                      /          
 |/                                      /           
 *--------------------------------------*            

Positions:
   0 Na     8.244708    9.560634    8.679437    ( 0.0000,  0.0000,  0.0000)
   1 Na     6.387841    8.078015   11.015341    ( 0.0000,  0.0000,  0.0000)
   2 Na     4.954357    9.963054    8.317141    ( 0.0000,  0.0000,  0.0000)
   3 Na     7.195355    9.804045    5.523494    ( 0.0000,  0.0000,  0.0000)
   4 Na    10.031383    7.819998    6.467494    ( 0.0000,  0.0000,  0.0000)
   5 Na     9.505638    6.706421    9.848663    ( 0.0000,  0.0000,  0.0000)

Unit cell:
           periodic     x           y           z      points  spacing
  1. axis:    no    16.000000    0.000000    0.000000    80     0.2000
  2. axis:    no     0.000000   16.000000    0.000000    80     0.2000
  3. axis:    no     0.000000    0.000000   16.000000    80     0.2000

  Lengths:  16.000000  16.000000  16.000000
  Angles:   90.000000  90.000000  90.000000

Effective grid spacing dv^(1/3) = 0.2000

                     log10-error:    total        iterations:
           time      wfs    density  energy       fermi  poisson
iter:   1  11:15:07  -2.23   +inf    -4.889332    0             
iter:   2  11:15:12  -3.33  -1.54    -4.888785    0             
iter:   3  11:15:17  -3.25  -1.57    -4.887361    0             
iter:   4  11:15:22  -4.48  -1.79    -4.886285    0             
iter:   5  11:15:27  -5.05  -2.08    -4.886187    0             
iter:   6  11:15:32  -5.02  -2.23    -4.886246    0             
iter:   7  11:15:37  -5.82  -2.29    -4.886188    0             
iter:   8  11:15:43  -5.29  -2.41    -4.886149    0             
iter:   9  11:15:48  -6.06  -3.01    -4.886158    0             
iter:  10  11:15:53  -6.26  -2.80    -4.886151    0             
iter:  11  11:15:58  -6.74  -3.25    -4.886151    0             
iter:  12  11:16:03  -7.66  -3.43    -4.886151    0             
iter:  13  11:16:08  -7.47  -3.47    -4.886151    0             
iter:  14  11:16:13  -8.33  -3.93    -4.886151    0             
iter:  15  11:16:18  -8.85  -4.10    -4.886151    0             

Converged after 15 iterations.

Dipole moment: (-0.070707, -0.107614, -0.048424) |e|*Ang

Energy contributions relative to reference atoms: (reference = -26511.662975)

Kinetic:         +9.342260
Potential:       -8.663330
External:        +0.000000
XC:              -5.565006
Entropy (-ST):   +0.000000
Local:           -0.000075
--------------------------
Free energy:     -4.886151
Extrapolated:    -4.886151

Fermi level: -2.25457

 Band  Eigenvalues  Occupancy
    0     -3.94329    2.00000
    1     -2.81946    2.00000
    2     -2.81372    2.00000
    3     -1.69542    0.00000
    4     -1.55053    0.00000
    5     -1.54012    0.00000
    6     -1.23434    0.00000
    7     -0.69045    0.00000

Gap: 1.118 eV
Transition (v -> c):
  (s=0, k=0, n=2, [0.00, 0.00, 0.00]) -> (s=0, k=0, n=3, [0.00, 0.00, 0.00])

Forces in eV/Ang:
  0 Na    0.01410    0.02425    0.00923
  1 Na   -0.00603   -0.01019    0.00725
  2 Na   -0.01393    0.00312   -0.00088
  3 Na   -0.00450    0.00302   -0.01312
  4 Na    0.00656   -0.01082   -0.00682
  5 Na    0.00383   -0.00903    0.00432

System changes: positions 

Initializing position-dependent things.

Density initialized from wave functions
           .--------------------------------------.  
          /|                                      |  
         / |                                      |  
        /  |                                      |  
       /   |                                      |  
      /    |                                      |  
     /     |                                      |  
    /      |                                      |  
   /       |                                      |  
  /        |                                      |  
 *         |                                      |  
 |         |          Na                          |  
 |         |                                      |  
 |         |       Na      NNa                    |  
 |         |                                      |  
 |         |                                      |  
 |         |                                      |  
 |         |             Na   Na                  |  
 |         |                                      |  
 |         |                                      |  
 |         .--------------------------------------.  
 |        /                                      /   
 |       /                                      /    
 |      /                                      /     
 |     /                                      /      
 |    /                                      /       
 |   /                                      /        
 |  /                                      /         
 | /                                      /          
 |/                                      /           
 *--------------------------------------*            

Positions:
   0 Na     8.251368    9.574198    8.683861    ( 0.0000,  0.0000,  0.0000)
   1 Na     6.382153    8.073403   11.024161    ( 0.0000,  0.0000,  0.0000)
   2 Na     4.943809    9.966035    8.316336    ( 0.0000,  0.0000,  0.0000)
   3 Na     7.192279    9.806606    5.513266    ( 0.0000,  0.0000,  0.0000)
   4 Na    10.038698    7.814490    6.460352    ( 0.0000,  0.0000,  0.0000)
   5 Na     9.510965    6.697426    9.853585    ( 0.0000,  0.0000,  0.0000)

Unit cell:
           periodic     x           y           z      points  spacing
  1. axis:    no    16.000000    0.000000    0.000000    80     0.2000
  2. axis:    no     0.000000   16.000000    0.000000    80     0.2000
  3. axis:    no     0.000000    0.000000   16.000000    80     0.2000

  Lengths:  16.000000  16.000000  16.000000
  Angles:   90.000000  90.000000  90.000000

Effective grid spacing dv^(1/3) = 0.2000

                     log10-error:    total        iterations:
           time      wfs    density  energy       fermi  poisson
iter:   1  11:16:29  -3.06   +inf    -4.887238    0             
iter:   2  11:16:34  -4.15  -1.96    -4.887161    0             
iter:   3  11:16:39  -4.10  -1.99    -4.886940    0             
iter:   4  11:16:44  -5.36  -2.22    -4.886803    0             
iter:   5  11:16:49  -5.90  -2.49    -4.886788    0             
iter:   6  11:16:54  -5.85  -2.63    -4.886796    0             
iter:   7  11:17:00  -6.71  -2.70    -4.886788    0             
iter:   8  11:17:05  -6.32  -2.80    -4.886781    0             
iter:   9  11:17:10  -7.13  -3.26    -4.886783    0             
iter:  10  11:17:15  -6.99  -3.21    -4.886782    0             
iter:  11  11:17:20  -7.68  -3.75    -4.886782    0             
iter:  12  11:17:25  -8.54  -3.86    -4.886782    0             
iter:  13  11:17:30  -8.45  -3.90    -4.886782    0             
iter:  14  11:17:35  -9.32  -4.16    -4.886782    0             

Converged after 14 iterations.

Dipole moment: (-0.070422, -0.106257, -0.048305) |e|*Ang

Energy contributions relative to reference atoms: (reference = -26511.662975)

Kinetic:         +8.898294
Potential:       -8.313321
External:        +0.000000
XC:              -5.471672
Entropy (-ST):   +0.000000
Local:           -0.000083
--------------------------
Free energy:     -4.886782
Extrapolated:    -4.886782

Fermi level: -2.25500

 Band  Eigenvalues  Occupancy
    0     -3.93247    2.00000
    1     -2.81626    2.00000
    2     -2.81095    2.00000
    3     -1.69906    0.00000
    4     -1.55421    0.00000
    5     -1.54382    0.00000
    6     -1.23014    0.00000
    7     -0.69375    0.00000

Gap: 1.112 eV
Transition (v -> c):
  (s=0, k=0, n=2, [0.00, 0.00, 0.00]) -> (s=0, k=0, n=3, [0.00, 0.00, 0.00])

Forces in eV/Ang:
  0 Na    0.00609    0.00774    0.00381
  1 Na    0.00149   -0.00504   -0.00476
  2 Na   -0.00034   -0.00075    0.00022
  3 Na   -0.00061   -0.00022    0.00012
  4 Na   -0.00328   -0.00441    0.00277
  5 Na   -0.00344    0.00294   -0.00225

Timing:                                      incl.     excl.
-------------------------------------------------------------------
Density initialized from wave functions:     3.027     3.027   0.7% |
 Symmetrize density:                         0.000     0.000   0.0% |
Forces:                                     23.119    23.119   5.2% |-|
Hamiltonian:                                19.193     0.081   0.0% |
 Atomic:                                     1.378     0.006   0.0% |
  XC Correction:                             1.371     1.371   0.3% |
 Calculate atomic Hamiltonians:              2.691     2.691   0.6% |
 Communicate:                                0.000     0.000   0.0% |
 Initialize Hamiltonian:                     0.000     0.000   0.0% |
 Poisson:                                    0.148     0.148   0.0% |
 XC 3D grid:                                14.894    14.894   3.4% ||
LCAO initialization:                         0.341     0.021   0.0% |
 LCAO eigensolver:                           0.121     0.000   0.0% |
  Calculate projections:                     0.000     0.000   0.0% |
  DenseAtomicCorrection:                     0.000     0.000   0.0% |
  Distribute overlap matrix:                 0.000     0.000   0.0% |
  Orbital Layouts:                           0.000     0.000   0.0% |
  Potential matrix:                          0.120     0.120   0.0% |
 LCAO to grid:                               0.169     0.169   0.0% |
 Set positions (LCAO WFS):                   0.029     0.005   0.0% |
  Basic WFS set positions:                   0.000     0.000   0.0% |
  Basis functions set positions:             0.000     0.000   0.0% |
  P tci:                                     0.013     0.013   0.0% |
  ST tci:                                    0.005     0.005   0.0% |
  mktci:                                     0.006     0.006   0.0% |
PWDescriptor:                                0.032     0.032   0.0% |
Redistribute:                                0.004     0.004   0.0% |
SCF-cycle:                                 387.025     0.117   0.0% |
 Davidson:                                  41.552     4.201   1.0% |
  Apply H:                                   8.869     8.693   2.0% ||
   HMM T:                                    0.177     0.177   0.0% |
  Subspace diag:                             9.327     0.016   0.0% |
   calc_h_matrix:                            9.018     0.134   0.0% |
    Apply H:                                 8.884     8.692   2.0% ||
     HMM T:                                  0.193     0.193   0.0% |
   diagonalize:                              0.025     0.025   0.0% |
   rotate_psi:                               0.269     0.269   0.1% |
  calc. matrices:                           18.580     0.913   0.2% |
   Apply H:                                 17.667    17.310   3.9% |-|
    HMM T:                                   0.358     0.358   0.1% |
  diagonalize:                               0.060     0.060   0.0% |
  rotate_psi:                                0.514     0.514   0.1% |
 Density:                                   58.676     0.004   0.0% |
  Atomic density matrices:                   0.092     0.092   0.0% |
  Mix:                                      53.360    53.360  12.1% |----|
  Multipole moments:                         0.021     0.021   0.0% |
  Pseudo density:                            5.198     5.194   1.2% |
   Symmetrize density:                       0.005     0.005   0.0% |
 Hamiltonian:                              286.610     1.218   0.3% |
  Atomic:                                   20.761     0.096   0.0% |
   XC Correction:                           20.664    20.664   4.7% |-|
  Calculate atomic Hamiltonians:            39.616    39.616   9.0% |---|
  Communicate:                               0.001     0.001   0.0% |
  Poisson:                                   2.073     2.073   0.5% |
  XC 3D grid:                              222.941   222.941  50.5% |-------------------|
 Orthonormalize:                             0.069     0.001   0.0% |
  calc_s_matrix:                             0.007     0.007   0.0% |
  inverse-cholesky:                          0.002     0.002   0.0% |
  projections:                               0.046     0.046   0.0% |
  rotate_psi_s:                              0.012     0.012   0.0% |
Set symmetry:                                0.001     0.001   0.0% |
Other:                                       8.398     8.398   1.9% ||
-------------------------------------------------------------------
Total:                                               441.141 100.0%

Memory usage: 1.40 GiB
Date: Tue Feb 18 11:17:40 2020
