
  ___ ___ ___ _ _ _  
 |   |   |_  | | | | 
 | | | | | . | | | | 
 |__ |  _|___|_____|  19.8.1
 |___|_|             

User:   hallborn@hebbe07-2
Date:   Thu Feb 13 00:00:19 2020
Arch:   x86_64
Pid:    27364
Python: 3.7.2
gpaw:   /apps/Hebbe7/software/MPI/intel/2019.1.144-GCC-8.2.0-2.31.1/impi/2018.4.274/GPAW/19.8.1-Python-3.7.2/lib/python3.7/site-packages/gpaw
_gpaw:  /apps/Hebbe7/software/MPI/intel/2019.1.144-GCC-8.2.0-2.31.1/impi/2018.4.274/GPAW/19.8.1-Python-3.7.2/bin/
        gpaw-python
ase:    /apps/Hebbe7/software/MPI/intel/2019.1.144-GCC-8.2.0-2.31.1/impi/2018.4.274/ASE/3.18.0-Python-3.7.2/lib/python3.7/site-packages/ase (version 3.18.0)
numpy:  /apps/Hebbe7/software/MPI/intel/2019.1.144-GCC-8.2.0-2.31.1/impi/2018.4.274/SciPy-bundle/2019.03/lib/python3.7/site-packages/numpy (version 1.16.2)
scipy:  /apps/Hebbe7/software/MPI/intel/2019.1.144-GCC-8.2.0-2.31.1/impi/2018.4.274/SciPy-bundle/2019.03/lib/python3.7/site-packages/scipy (version 1.2.1)
libxc:  4.3.4
units:  Angstrom and eV
cores:  1

Input parameters:
  mode: lcao

System changes: positions, numbers, cell, pbc, initial_charges, initial_magmoms 

Initialize ...

Na-setup:
  name: Sodium
  id: 74d681ec425db66acd6a232eb07f04e6
  Z: 11
  valence: 7
  core: 4
  charge: 0.0
  file: /apps/Common/Core/GPAW-setups/0.9.20000/Na.LDA.gz
  compensation charges: gauss, rc=0.37, lmax=2
  cutoffs: 2.17(filt), 2.59(core),
  valence states:
                energy  radius
    3s(1.00)    -2.819   1.201
    2p(6.00)   -28.826   1.217
    3p(0.00)    -0.774   1.217
    *s          24.392   1.201
    *d           0.000   1.238

  Using partial waves for Na as LCAO basis

Reference energy: -26392.251266

Spin-paired calculation

Occupation numbers:
  Fermi-Dirac: width=0.0000 eV

Convergence criteria:
  Maximum total energy change: 0.0005 eV / electron
  Maximum integral of absolute density change: 0.0001 electrons
  Maximum integral of absolute eigenstate change: 4e-08 eV^2
  Maximum number of iterations: 333

Symmetries present (total): 1

  ( 1  0  0)
  ( 0  1  0)
  ( 0  0  1)

1 k-point (Gamma)
1 k-point in the irreducible part of the Brillouin zone
       k-points in crystal coordinates                weights
   0:     0.00000000    0.00000000    0.00000000          1/1

Wave functions: LCAO
  Diagonalizer: Serial LAPACK
  Atomic Correction: dense with blas
  Datatype: float
 

Eigensolver
   LCAO using direct dense diagonalizer 

Densities:
  Coarse grid: 80*80*80 grid
  Fine grid: 160*160*160 grid
  Total Charge: 0.000000 

Density mixing:
  Method: separate
  Backend: pulay
  Linear mixing parameter: 0.25
  Mixing with 3 old densities
  No damping of long wave oscillations 

Hamiltonian:
  XC and Coulomb potentials evaluated on a 160*160*160 grid
  Using the LDA Exchange-Correlation functional
  Interpolation: tri-quintic (5. degree polynomial)
  Poisson solver: FastPoissonSolver using
    6*3+1=19 point O(h^6) finite-difference Laplacian stencil;
    FFT axes: [];
    FST axes: [0, 1, 2].
 

Memory estimate:
  Process memory now: 805.55 MiB
  Calculator: 228.55 MiB
    Density: 148.73 MiB
      Arrays: 99.53 MiB
      Localized functions: 26.63 MiB
      Mixer: 22.57 MiB
    Hamiltonian: 67.06 MiB
      Arrays: 65.10 MiB
      XC: 0.00 MiB
      Poisson: 0.00 MiB
      vbar: 1.96 MiB
    Wavefunctions: 12.77 MiB
      C [qnM]: 0.01 MiB
      S, T [2 x qmm]: 0.03 MiB
      P [aqMi]: 0.00 MiB
      BasisFunctions: 12.73 MiB
      Eigensolver: 0.00 MiB

Total number of cores used: 1

Number of atoms: 6
Number of atomic orbitals: 42
Number of bands in calculation: 30
Bands to converge: occupied states only
Number of valence electrons: 42

... initialized

Initializing position-dependent things.

Density initialized from atomic densities
           .--------------------------------------.  
          /|                                      |  
         / |                                      |  
        /  |                                      |  
       /   |                                      |  
      /    |                                      |  
     /     |                                      |  
    /      |                                      |  
   /       |                                      |  
  /        |                                      |  
 *         |                                      |  
 |         |          Na                          |  
 |         |                                      |  
 |         |       Na      Na                     |  
 |         |                Na                    |  
 |         |                                      |  
 |         |                                      |  
 |         |             Na   Na                  |  
 |         |                                      |  
 |         |                                      |  
 |         .--------------------------------------.  
 |        /                                      /   
 |       /                                      /    
 |      /                                      /     
 |     /                                      /      
 |    /                                      /       
 |   /                                      /        
 |  /                                      /         
 | /                                      /          
 |/                                      /           
 *--------------------------------------*            

Positions:
   0 Na     8.210231    9.489933    8.656516    ( 0.0000,  0.0000,  0.0000)
   1 Na     6.417931    8.101846   10.968460    ( 0.0000,  0.0000,  0.0000)
   2 Na     5.009862    9.947279    8.321395    ( 0.0000,  0.0000,  0.0000)
   3 Na     7.211492    9.790525    5.577356    ( 0.0000,  0.0000,  0.0000)
   4 Na     9.992557    7.848605    6.505352    ( 0.0000,  0.0000,  0.0000)
   5 Na     9.477264    6.754058    9.822530    ( 0.0000,  0.0000,  0.0000)

Unit cell:
           periodic     x           y           z      points  spacing
  1. axis:    no    16.000000    0.000000    0.000000    80     0.2000
  2. axis:    no     0.000000   16.000000    0.000000    80     0.2000
  3. axis:    no     0.000000    0.000000   16.000000    80     0.2000

  Lengths:  16.000000  16.000000  16.000000
  Angles:   90.000000  90.000000  90.000000

Effective grid spacing dv^(1/3) = 0.2000

                     log10-error:    total        iterations:
           time      wfs    density  energy       fermi  poisson
iter:   1  00:00:27          +inf    -4.540052    0      1      
iter:   2  00:00:28         -1.31    -4.311872    0      1      
iter:   3  00:00:30         -1.53    -4.244344    0      1      
iter:   4  00:00:32         -2.00    -4.237106    0      1      
iter:   5  00:00:33         -2.68    -4.236513    0      1      
iter:   6  00:00:35         -3.17    -4.236446    0      1      
iter:   7  00:00:36         -3.51    -4.236429    0      1      
iter:   8  00:00:38         -3.94    -4.236427    0      1      
iter:   9  00:00:40         -4.13    -4.236427    0      1      

Converged after 9 iterations.

Dipole moment: (-0.068014, -0.113120, -0.043881) |e|*Ang

Energy contributions relative to reference atoms: (reference = -26392.251266)

Kinetic:        +19.429989
Potential:      -16.075458
External:        +0.000000
XC:              -7.616871
Entropy (-ST):   +0.000000
Local:           +0.025913
--------------------------
Free energy:     -4.236427
Extrapolated:    -4.236427

Fermi level: -1.98431

 Band  Eigenvalues  Occupancy
    0    -27.65558    2.00000
    1    -27.65451    2.00000
    2    -27.65131    2.00000
    3    -27.64313    2.00000
    4    -27.64014    2.00000
    5    -27.63803    2.00000
    6    -27.63620    2.00000
    7    -27.63450    2.00000
    8    -27.63289    2.00000
    9    -27.63152    2.00000
   10    -27.62641    2.00000
   11    -27.62618    2.00000
   12    -27.61484    2.00000
   13    -27.61444    2.00000
   14    -27.60756    2.00000
   15    -27.53641    2.00000
   16    -27.51719    2.00000
   17    -27.51684    2.00000
   18     -3.85899    2.00000
   19     -2.68345    2.00000
   20     -2.67511    2.00000
   21     -1.29351    0.00000
   22     -1.23184    0.00000
   23     -1.22645    0.00000
   24     -0.60820    0.00000
   25      0.07386    0.00000
   26      0.07669    0.00000
   27      0.38326    0.00000
   28      0.38384    0.00000
   29      0.75959    0.00000

Gap: 1.382 eV
Transition (v -> c):
  (s=0, k=0, n=20, [0.00, 0.00, 0.00]) -> (s=0, k=0, n=21, [0.00, 0.00, 0.00])
Timing:                              incl.     excl.
-----------------------------------------------------------
Basic WFS set positions:             0.000     0.000   0.0% |
Basis functions set positions:       0.026     0.026   0.1% |
LCAO WFS Initialize:                 1.520     0.153   0.7% |
 Hamiltonian:                        1.367     0.000   0.0% |
  Atomic:                            0.095     0.001   0.0% |
   XC Correction:                    0.094     0.094   0.4% |
  Calculate atomic Hamiltonians:     0.010     0.010   0.0% |
  Communicate:                       0.000     0.000   0.0% |
  Hartree integrate/restrict:        0.094     0.094   0.4% |
  Initialize Hamiltonian:            0.000     0.000   0.0% |
  Poisson:                           0.518     0.033   0.2% |
   Communicate bwd 0:                0.061     0.061   0.3% |
   Communicate bwd 1:                0.042     0.042   0.2% |
   Communicate fwd 0:                0.057     0.057   0.3% |
   Communicate fwd 1:                0.062     0.062   0.3% |
   fft:                              0.073     0.073   0.3% |
   fft2:                             0.189     0.189   0.9% |
  XC 3D grid:                        0.630     0.630   2.9% ||
  vbar:                              0.019     0.019   0.1% |
P tci:                               0.016     0.016   0.1% |
SCF-cycle:                          12.933     0.003   0.0% |
 Density:                            1.747     0.000   0.0% |
  Atomic density matrices:           0.009     0.009   0.0% |
  Mix:                               1.221     1.221   5.7% |-|
  Multipole moments:                 0.002     0.002   0.0% |
  Normalize:                         0.005     0.005   0.0% |
  Pseudo density:                    0.509     0.021   0.1% |
   Calculate density matrix:         0.000     0.000   0.0% |
   Construct density:                0.488     0.488   2.3% ||
   Symmetrize density:               0.000     0.000   0.0% |
 Hamiltonian:                       10.695     0.001   0.0% |
  Atomic:                            0.760     0.012   0.1% |
   XC Correction:                    0.748     0.748   3.5% ||
  Calculate atomic Hamiltonians:     0.076     0.076   0.4% |
  Communicate:                       0.000     0.000   0.0% |
  Hartree integrate/restrict:        0.744     0.744   3.5% ||
  Poisson:                           4.041     0.201   0.9% |
   Communicate bwd 0:                0.482     0.482   2.2% ||
   Communicate bwd 1:                0.321     0.321   1.5% ||
   Communicate fwd 0:                0.446     0.446   2.1% ||
   Communicate fwd 1:                0.482     0.482   2.2% ||
   fft:                              0.590     0.590   2.7% ||
   fft2:                             1.518     1.518   7.1% |--|
  XC 3D grid:                        4.989     4.989  23.2% |--------|
  vbar:                              0.084     0.084   0.4% |
 LCAO eigensolver:                   0.488     0.001   0.0% |
  Calculate projections:             0.001     0.001   0.0% |
  DenseAtomicCorrection:             0.004     0.004   0.0% |
  Distribute overlap matrix:         0.000     0.000   0.0% |
  Orbital Layouts:                   0.005     0.005   0.0% |
  Potential matrix:                  0.477     0.477   2.2% ||
ST tci:                              0.004     0.004   0.0% |
Set symmetry:                        0.001     0.001   0.0% |
TCI: Evaluate splines:               0.037     0.037   0.2% |
mktci:                               0.001     0.001   0.0% |
Other:                               6.975     6.975  32.4% |------------|
-----------------------------------------------------------
Total:                                        21.513 100.0%

Memory usage: 897.83 MiB
Date: Thu Feb 13 00:00:41 2020
