
  ___ ___ ___ _ _ _  
 |   |   |_  | | | | 
 | | | | | . | | | | 
 |__ |  _|___|_____|  19.8.1
 |___|_|             

User:   hallborn@hebbe12-1
Date:   Mon Feb 17 22:00:00 2020
Arch:   x86_64
Pid:    18442
Python: 3.7.2
gpaw:   /apps/Hebbe7/software/MPI/intel/2019.1.144-GCC-8.2.0-2.31.1/impi/2018.4.274/GPAW/19.8.1-Python-3.7.2/lib/python3.7/site-packages/gpaw
_gpaw:  /apps/Hebbe7/software/MPI/intel/2019.1.144-GCC-8.2.0-2.31.1/impi/2018.4.274/GPAW/19.8.1-Python-3.7.2/bin/
        gpaw-python
ase:    /apps/Hebbe7/software/MPI/intel/2019.1.144-GCC-8.2.0-2.31.1/impi/2018.4.274/ASE/3.18.0-Python-3.7.2/lib/python3.7/site-packages/ase (version 3.18.0)
numpy:  /apps/Hebbe7/software/MPI/intel/2019.1.144-GCC-8.2.0-2.31.1/impi/2018.4.274/SciPy-bundle/2019.03/lib/python3.7/site-packages/numpy (version 1.16.2)
scipy:  /apps/Hebbe7/software/MPI/intel/2019.1.144-GCC-8.2.0-2.31.1/impi/2018.4.274/SciPy-bundle/2019.03/lib/python3.7/site-packages/scipy (version 1.2.1)
libxc:  4.3.4
units:  Angstrom and eV
cores:  1

Input parameters:
  basis: dzp
  h: 0.25
  mode: lcao
  setups: {Na: 1}
  xc: PBE

System changes: positions, numbers, cell, pbc, initial_charges, initial_magmoms 

Initialize ...

Na-setup:
  name: Sodium
  id: 8dbce52902f3add137ce7d12431c9cac
  Z: 11
  valence: 1
  core: 10
  charge: 0.0
  file: /apps/Common/Core/GPAW-setups/0.9.20000/Na.1.PBE.gz
  compensation charges: gauss, rc=0.43, lmax=2
  cutoffs: 2.36(filt), 3.60(core),
  valence states:
                energy  radius
    3s(1.00)    -2.744   1.349
    3p(0.00)    -0.743   1.349
    *s          24.468   1.349

  LCAO basis set for Na:
    Name: 1.dzp
    File: /apps/Common/Core/GPAW-setups/0.9.20000/Na.1.dzp.basis.gz
    Number of radial functions: 3
    Number of spherical harmonics: 5
      l=0, rc=11.7656 Bohr: 3s-sz confined orbital
      l=0, rc=7.1094 Bohr: 3s-dz split-valence wave
      l=1, rc=11.7656 Bohr: p-type Gaussian polarization

Reference energy: -26511.662975

Spin-paired calculation

Occupation numbers:
  Fermi-Dirac: width=0.0000 eV

Convergence criteria:
  Maximum total energy change: 0.0005 eV / electron
  Maximum integral of absolute density change: 0.0001 electrons
  Maximum integral of absolute eigenstate change: 4e-08 eV^2
  Maximum number of iterations: 333

Symmetries present (total): 1

  ( 1  0  0)
  ( 0  1  0)
  ( 0  0  1)

1 k-point (Gamma)
1 k-point in the irreducible part of the Brillouin zone
       k-points in crystal coordinates                weights
   0:     0.00000000    0.00000000    0.00000000          1/1

Wave functions: LCAO
  Diagonalizer: Serial LAPACK
  Atomic Correction: dense with blas
  Datatype: float
 

Eigensolver
   LCAO using direct dense diagonalizer 

Densities:
  Coarse grid: 64*64*64 grid
  Fine grid: 128*128*128 grid
  Total Charge: 0.000000 

Density mixing:
  Method: separate
  Backend: pulay
  Linear mixing parameter: 0.25
  Mixing with 3 old densities
  No damping of long wave oscillations 

Hamiltonian:
  XC and Coulomb potentials evaluated on a 128*128*128 grid
  Using the PBE Exchange-Correlation functional
  Interpolation: tri-quintic (5. degree polynomial)
  Poisson solver: FastPoissonSolver using
    6*3+1=19 point O(h^6) finite-difference Laplacian stencil;
    FFT axes: [];
    FST axes: [0, 1, 2].
 

XC parameters: PBE with 2 nearest neighbor stencil

Memory estimate:
  Process memory now: 276.90 MiB
  Calculator: 127.06 MiB
    Density: 80.09 MiB
      Arrays: 50.70 MiB
      Localized functions: 17.94 MiB
      Mixer: 11.45 MiB
    Hamiltonian: 34.46 MiB
      Arrays: 33.16 MiB
      XC: 0.00 MiB
      Poisson: 0.00 MiB
      vbar: 1.29 MiB
    Wavefunctions: 12.52 MiB
      C [qnM]: 0.00 MiB
      S, T [2 x qmm]: 0.01 MiB
      P [aqMi]: 0.00 MiB
      BasisFunctions: 12.50 MiB
      Eigensolver: 0.00 MiB

Total number of cores used: 1

Number of atoms: 6
Number of atomic orbitals: 30
Number of bands in calculation: 8
Bands to converge: occupied states only
Number of valence electrons: 6

... initialized

Initializing position-dependent things.

Density initialized from atomic densities
           .--------------------------------------.  
          /|                                      |  
         / |                                      |  
        /  |                                      |  
       /   |                                      |  
      /    |                                      |  
     /     |                                      |  
    /      |                                      |  
   /       |                                      |  
  /        |                                      |  
 *         |           Na                         |  
 |         |                                      |  
 |         |                Na                    |  
 |         |                                      |  
 |         |            Na                        |  
 |         |                    Na                |  
 |         |                                      |  
 |         |                Na                    |  
 |         |                                      |  
 |         |             Na                       |  
 |         .--------------------------------------.  
 |        /                                      /   
 |       /                                      /    
 |      /                                      /     
 |     /                                      /      
 |    /                                      /       
 |   /                                      /        
 |  /                                      /         
 | /                                      /          
 |/                                      /           
 *--------------------------------------*            

Positions:
   0 Na    11.424955    5.046215    9.661160    ( 0.0000,  0.0000,  0.0000)
   1 Na     9.091214    7.135542   10.719357    ( 0.0000,  0.0000,  0.0000)
   2 Na     6.710298    9.263471   11.516303    ( 0.0000,  0.0000,  0.0000)
   3 Na     7.680133    8.011559    5.125248    ( 0.0000,  0.0000,  0.0000)
   4 Na     9.624253    6.463545    7.292195    ( 0.0000,  0.0000,  0.0000)
   5 Na     7.055205    8.690646    8.283979    ( 0.0000,  0.0000,  0.0000)

Unit cell:
           periodic     x           y           z      points  spacing
  1. axis:    no    16.000000    0.000000    0.000000    64     0.2500
  2. axis:    no     0.000000   16.000000    0.000000    64     0.2500
  3. axis:    no     0.000000    0.000000   16.000000    64     0.2500

  Lengths:  16.000000  16.000000  16.000000
  Angles:   90.000000  90.000000  90.000000

Effective grid spacing dv^(1/3) = 0.2500

                     log10-error:    total        iterations:
           time      wfs    density  energy       fermi  poisson
iter:   1  22:00:06          +inf    -4.653006    0      1      
iter:   2  22:00:08         -0.66    -4.514276    0      1      
iter:   3  22:00:10         -0.86    -4.458492    0      1      
iter:   4  22:00:12         -1.25    -4.452369    0      1      
iter:   5  22:00:14         -2.12    -4.452362    0      1      
iter:   6  22:00:16         -2.31    -4.452381    0      1      
iter:   7  22:00:18         -2.52    -4.452388    0      1      
iter:   8  22:00:20         -3.34    -4.452387    0      1      
iter:   9  22:00:22         -3.55    -4.452387    0      1      
iter:  10  22:00:24         -4.22    -4.452387    0      1      

Converged after 10 iterations.

Dipole moment: (0.000400, -0.001205, 0.002752) |e|*Ang

Energy contributions relative to reference atoms: (reference = -26511.662975)

Kinetic:        +19.411252
Potential:      -17.251201
External:        +0.000000
XC:              -6.632078
Entropy (-ST):   +0.000000
Local:           +0.019640
--------------------------
Free energy:     -4.452387
Extrapolated:    -4.452387

Fermi level: -2.27460

 Band  Eigenvalues  Occupancy
    0     -4.09892    2.00000
    1     -3.02862    2.00000
    2     -3.02694    2.00000
    3     -1.52226    0.00000
    4     -1.44451    0.00000
    5     -1.44021    0.00000
    6      2.24277    0.00000
    7      2.24518    0.00000

Gap: 1.505 eV
Transition (v -> c):
  (s=0, k=0, n=2, [0.00, 0.00, 0.00]) -> (s=0, k=0, n=3, [0.00, 0.00, 0.00])

Forces in eV/Ang:
  0 Na    0.07356   -0.06127    0.02718
  1 Na    0.02160   -0.01530    0.06402
  2 Na   -0.05369    0.04991    0.07328
  3 Na   -0.02385    0.01423   -0.10279
  4 Na    0.03211   -0.03066   -0.04950
  5 Na   -0.04931    0.04383   -0.01187

System changes: positions 

Initializing position-dependent things.

Density initialized from wave functions
           .--------------------------------------.  
          /|                                      |  
         / |                                      |  
        /  |                                      |  
       /   |                                      |  
      /    |                                      |  
     /     |                                      |  
    /      |                                      |  
   /       |                                      |  
  /        |                                      |  
 *         |           Na                         |  
 |         |                                      |  
 |         |                Na                    |  
 |         |                                      |  
 |         |            Na                        |  
 |         |                    Na                |  
 |         |                                      |  
 |         |                Na                    |  
 |         |                                      |  
 |         |             Na                       |  
 |         .--------------------------------------.  
 |        /                                      /   
 |       /                                      /    
 |      /                                      /     
 |     /                                      /      
 |    /                                      /       
 |   /                                      /        
 |  /                                      /         
 | /                                      /          
 |/                                      /           
 *--------------------------------------*            

Positions:
   0 Na    11.426006    5.045339    9.661548    ( 0.0000,  0.0000,  0.0000)
   1 Na     9.091522    7.135323   10.720272    ( 0.0000,  0.0000,  0.0000)
   2 Na     6.709531    9.264184   11.517349    ( 0.0000,  0.0000,  0.0000)
   3 Na     7.679792    8.011762    5.123779    ( 0.0000,  0.0000,  0.0000)
   4 Na     9.624712    6.463107    7.291488    ( 0.0000,  0.0000,  0.0000)
   5 Na     7.054500    8.691272    8.283810    ( 0.0000,  0.0000,  0.0000)

Unit cell:
           periodic     x           y           z      points  spacing
  1. axis:    no    16.000000    0.000000    0.000000    64     0.2500
  2. axis:    no     0.000000   16.000000    0.000000    64     0.2500
  3. axis:    no     0.000000    0.000000   16.000000    64     0.2500

  Lengths:  16.000000  16.000000  16.000000
  Angles:   90.000000  90.000000  90.000000

Effective grid spacing dv^(1/3) = 0.2500

                     log10-error:    total        iterations:
           time      wfs    density  energy       fermi  poisson
iter:   1  22:00:27          +inf    -4.453034    0      1      
iter:   2  22:00:29         -3.69    -4.453034    0      1      
iter:   3  22:00:31         -3.89    -4.453034    0      1      
iter:   4  22:00:33         -4.30    -4.453034    0      1      

Converged after 4 iterations.

Dipole moment: (0.000407, -0.001217, 0.002746) |e|*Ang

Energy contributions relative to reference atoms: (reference = -26511.662975)

Kinetic:        +19.369149
Potential:      -17.218325
External:        +0.000000
XC:              -6.623315
Entropy (-ST):   +0.000000
Local:           +0.019457
--------------------------
Free energy:     -4.453034
Extrapolated:    -4.453034

Fermi level: -2.27480

 Band  Eigenvalues  Occupancy
    0     -4.09812    2.00000
    1     -3.02864    2.00000
    2     -3.02696    2.00000
    3     -1.52264    0.00000
    4     -1.44519    0.00000
    5     -1.44094    0.00000
    6      2.24499    0.00000
    7      2.24732    0.00000

Gap: 1.504 eV
Transition (v -> c):
  (s=0, k=0, n=2, [0.00, 0.00, 0.00]) -> (s=0, k=0, n=3, [0.00, 0.00, 0.00])

Forces in eV/Ang:
  0 Na    0.07245   -0.06033    0.02675
  1 Na    0.02116   -0.01498    0.06288
  2 Na   -0.05285    0.04909    0.07214
  3 Na   -0.02346    0.01398   -0.10121
  4 Na    0.03150   -0.03008   -0.04862
  5 Na   -0.04833    0.04306   -0.01167

System changes: positions 

Initializing position-dependent things.

Density initialized from wave functions
           .--------------------------------------.  
          /|                                      |  
         / |                                      |  
        /  |                                      |  
       /   |                                      |  
      /    |                                      |  
     /     |                                      |  
    /      |                                      |  
   /       |                                      |  
  /        |                                      |  
 *         |           Na                         |  
 |         |                                      |  
 |         |                Na                    |  
 |         |                                      |  
 |         |            Na                        |  
 |         |                    Na                |  
 |         |                                      |  
 |         |                 Na                   |  
 |         |                                      |  
 |         |             Na                       |  
 |         .--------------------------------------.  
 |        /                                      /   
 |       /                                      /    
 |      /                                      /     
 |     /                                      /      
 |    /                                      /       
 |   /                                      /        
 |  /                                      /         
 | /                                      /          
 |/                                      /           
 *--------------------------------------*            

Positions:
   0 Na    11.453651    5.022321    9.671754    ( 0.0000,  0.0000,  0.0000)
   1 Na     9.099594    7.129606   10.744264    ( 0.0000,  0.0000,  0.0000)
   2 Na     6.689365    9.282913   11.544876    ( 0.0000,  0.0000,  0.0000)
   3 Na     7.670840    8.017096    5.085161    ( 0.0000,  0.0000,  0.0000)
   4 Na     9.636731    6.451629    7.272936    ( 0.0000,  0.0000,  0.0000)
   5 Na     7.036060    8.707700    8.279355    ( 0.0000,  0.0000,  0.0000)

Unit cell:
           periodic     x           y           z      points  spacing
  1. axis:    no    16.000000    0.000000    0.000000    64     0.2500
  2. axis:    no     0.000000   16.000000    0.000000    64     0.2500
  3. axis:    no     0.000000    0.000000   16.000000    64     0.2500

  Lengths:  16.000000  16.000000  16.000000
  Angles:   90.000000  90.000000  90.000000

Effective grid spacing dv^(1/3) = 0.2500

                     log10-error:    total        iterations:
           time      wfs    density  energy       fermi  poisson
iter:   1  22:00:36          +inf    -4.466660    0      1      
iter:   2  22:00:38         -2.27    -4.466556    0      1      
iter:   3  22:00:40         -2.47    -4.466477    0      1      
iter:   4  22:00:42         -2.89    -4.466466    0      1      
iter:   5  22:00:44         -3.49    -4.466466    0      1      
iter:   6  22:00:46         -3.63    -4.466466    0      1      
iter:   7  22:00:48         -4.46    -4.466466    0      1      

Converged after 7 iterations.

Dipole moment: (0.000872, -0.001706, 0.002705) |e|*Ang

Energy contributions relative to reference atoms: (reference = -26511.662975)

Kinetic:        +18.221573
Potential:      -16.311258
External:        +0.000000
XC:              -6.395552
Entropy (-ST):   +0.000000
Local:           +0.018771
--------------------------
Free energy:     -4.466466
Extrapolated:    -4.466466

Fermi level: -2.27886

 Band  Eigenvalues  Occupancy
    0     -4.07575    2.00000
    1     -3.02770    2.00000
    2     -3.02581    2.00000
    3     -1.53191    0.00000
    4     -1.46168    0.00000
    5     -1.45856    0.00000
    6      2.30618    0.00000
    7      2.30832    0.00000

Gap: 1.494 eV
Transition (v -> c):
  (s=0, k=0, n=2, [0.00, 0.00, 0.00]) -> (s=0, k=0, n=3, [0.00, 0.00, 0.00])

Forces in eV/Ang:
  0 Na    0.04507   -0.03701    0.01637
  1 Na    0.01138   -0.00772    0.03695
  2 Na   -0.03156    0.02872    0.04354
  3 Na   -0.01453    0.00801   -0.06188
  4 Na    0.01782   -0.01701   -0.02844
  5 Na   -0.02579    0.02497   -0.00745

System changes: positions 

Initializing position-dependent things.

Density initialized from wave functions
           .--------------------------------------.  
          /|                                      |  
         / |                                      |  
        /  |                                      |  
       /   |                                      |  
      /    |                                      |  
     /     |                                      |  
    /      |                                      |  
   /       |                                      |  
  /        |                                      |  
 *         |           Na                         |  
 |         |                                      |  
 |         |                Na                    |  
 |         |                                      |  
 |         |            Na                        |  
 |         |                    Na                |  
 |         |                                      |  
 |         |                 Na                   |  
 |         |                                      |  
 |         |             Na                       |  
 |         .--------------------------------------.  
 |        /                                      /   
 |       /                                      /    
 |      /                                      /     
 |     /                                      /      
 |    /                                      /       
 |   /                                      /        
 |  /                                      /         
 | /                                      /          
 |/                                      /           
 *--------------------------------------*            

Positions:
   0 Na    11.481316    4.999299    9.681961    ( 0.0000,  0.0000,  0.0000)
   1 Na     9.107629    7.123923   10.768221    ( 0.0000,  0.0000,  0.0000)
   2 Na     6.669217    9.301613   11.572389    ( 0.0000,  0.0000,  0.0000)
   3 Na     7.661883    8.022417    5.046541    ( 0.0000,  0.0000,  0.0000)
   4 Na     9.648716    6.440184    7.254415    ( 0.0000,  0.0000,  0.0000)
   5 Na     7.017709    8.724096    8.274893    ( 0.0000,  0.0000,  0.0000)

Unit cell:
           periodic     x           y           z      points  spacing
  1. axis:    no    16.000000    0.000000    0.000000    64     0.2500
  2. axis:    no     0.000000   16.000000    0.000000    64     0.2500
  3. axis:    no     0.000000    0.000000   16.000000    64     0.2500

  Lengths:  16.000000  16.000000  16.000000
  Angles:   90.000000  90.000000  90.000000

Effective grid spacing dv^(1/3) = 0.2500

                     log10-error:    total        iterations:
           time      wfs    density  energy       fermi  poisson
iter:   1  22:00:51          +inf    -4.473511    0      1      
iter:   2  22:00:53         -2.26    -4.473409    0      1      
iter:   3  22:00:55         -2.45    -4.473328    0      1      
iter:   4  22:00:57         -2.89    -4.473319    0      1      
iter:   5  22:00:59         -3.48    -4.473319    0      1      
iter:   6  22:01:01         -3.62    -4.473319    0      1      
iter:   7  22:01:03         -4.46    -4.473319    0      1      

Converged after 7 iterations.

Dipole moment: (0.001337, -0.002181, 0.002651) |e|*Ang

Energy contributions relative to reference atoms: (reference = -26511.662975)

Kinetic:        +17.119864
Potential:      -15.438186
External:        +0.000000
XC:              -6.173084
Entropy (-ST):   +0.000000
Local:           +0.018087
--------------------------
Free energy:     -4.473319
Extrapolated:    -4.473319

Fermi level: -2.28312

 Band  Eigenvalues  Occupancy
    0     -4.05406    2.00000
    1     -3.02699    2.00000
    2     -3.02458    2.00000
    3     -1.54166    0.00000
    4     -1.47838    0.00000
    5     -1.47635    0.00000
    6      2.36928    0.00000
    7      2.37399    0.00000

Gap: 1.483 eV
Transition (v -> c):
  (s=0, k=0, n=2, [0.00, 0.00, 0.00]) -> (s=0, k=0, n=3, [0.00, 0.00, 0.00])

Forces in eV/Ang:
  0 Na    0.01860   -0.01503    0.00672
  1 Na    0.00198   -0.00113    0.01226
  2 Na   -0.01181    0.00918    0.01668
  3 Na   -0.00617    0.00248   -0.02455
  4 Na    0.00523   -0.00457   -0.01003
  5 Na   -0.00573    0.00892   -0.00338

System changes: positions 

Initializing position-dependent things.

Density initialized from wave functions
           .--------------------------------------.  
          /|                                      |  
         / |                                      |  
        /  |                                      |  
       /   |                                      |  
      /    |                                      |  
     /     |                                      |  
    /      |                                      |  
   /       |                                      |  
  /        |                                      |  
 *         |           Na                         |  
 |         |                                      |  
 |         |                Na                    |  
 |         |                                      |  
 |         |            Na                        |  
 |         |                    Na                |  
 |         |                                      |  
 |         |                 Na                   |  
 |         |                                      |  
 |         |             Na                       |  
 |         .--------------------------------------.  
 |        /                                      /   
 |       /                                      /    
 |      /                                      /     
 |     /                                      /      
 |    /                                      /       
 |   /                                      /        
 |  /                                      /         
 | /                                      /          
 |/                                      /           
 *--------------------------------------*            

Positions:
   0 Na    11.497417    4.985906    9.687900    ( 0.0000,  0.0000,  0.0000)
   1 Na     9.112243    7.120663   10.782095    ( 0.0000,  0.0000,  0.0000)
   2 Na     6.657519    9.312434   11.588371    ( 0.0000,  0.0000,  0.0000)
   3 Na     7.656666    8.025495    5.024087    ( 0.0000,  0.0000,  0.0000)
   4 Na     9.655642    6.433580    7.243676    ( 0.0000,  0.0000,  0.0000)
   5 Na     7.007144    8.733606    8.272289    ( 0.0000,  0.0000,  0.0000)

Unit cell:
           periodic     x           y           z      points  spacing
  1. axis:    no    16.000000    0.000000    0.000000    64     0.2500
  2. axis:    no     0.000000   16.000000    0.000000    64     0.2500
  3. axis:    no     0.000000    0.000000   16.000000    64     0.2500

  Lengths:  16.000000  16.000000  16.000000
  Angles:   90.000000  90.000000  90.000000

Effective grid spacing dv^(1/3) = 0.2500

                     log10-error:    total        iterations:
           time      wfs    density  energy       fermi  poisson
iter:   1  22:01:05          +inf    -4.474523    0      1      
iter:   2  22:01:08         -2.50    -4.474488    0      1      
iter:   3  22:01:10         -2.68    -4.474460    0      1      
iter:   4  22:01:12         -3.13    -4.474457    0      1      
iter:   5  22:01:14         -3.71    -4.474457    0      1      
iter:   6  22:01:16         -3.85    -4.474457    0      1      
iter:   7  22:01:18         -4.71    -4.474457    0      1      

Converged after 7 iterations.

Dipole moment: (0.001601, -0.002444, 0.002619) |e|*Ang

Energy contributions relative to reference atoms: (reference = -26511.662975)

Kinetic:        +16.500015
Potential:      -14.945856
External:        +0.000000
XC:              -6.046264
Entropy (-ST):   +0.000000
Local:           +0.017648
--------------------------
Free energy:     -4.474457
Extrapolated:    -4.474457

Fermi level: -2.28570

 Band  Eigenvalues  Occupancy
    0     -4.04175    2.00000
    1     -3.02662    2.00000
    2     -3.02385    2.00000
    3     -1.54755    0.00000
    4     -1.48818    0.00000
    5     -1.48672    0.00000
    6      2.40724    0.00000
    7      2.41370    0.00000

Gap: 1.476 eV
Transition (v -> c):
  (s=0, k=0, n=2, [0.00, 0.00, 0.00]) -> (s=0, k=0, n=3, [0.00, 0.00, 0.00])

Forces in eV/Ang:
  0 Na    0.00430   -0.00316    0.00122
  1 Na   -0.00313    0.00214   -0.00046
  2 Na   -0.00135   -0.00148    0.00230
  3 Na   -0.00138   -0.00047   -0.00397
  4 Na   -0.00167    0.00214    0.00006
  5 Na    0.00485    0.00059   -0.00155

Timing:                                       incl.     excl.
--------------------------------------------------------------------
Basic WFS set positions:                      0.004     0.002   0.0% |
 Redistribute:                                0.001     0.001   0.0% |
Basis functions set positions:                0.157     0.157   0.1% |
Forces:                                       2.115     0.457   0.3% |
 LCAO forces:                                 1.658     0.002   0.0% |
  Atomic Hamiltonian force:                   0.008     0.008   0.0% |
  Initial:                                    0.001     0.000   0.0% |
   Get density matrix:                        0.001     0.001   0.0% |
  Paw correction:                             0.006     0.006   0.0% |
  Potential:                                  1.504     1.504   1.1% |
  TCI derivative:                             0.137     0.137   0.1% |
  Wait for sum:                               0.000     0.000   0.0% |
LCAO WFS Initialize:                          9.942     0.104   0.1% |
 Density initialized from wave functions:     0.621     0.363   0.3% |
  Calculate density matrix:                   0.001     0.001   0.0% |
  Construct density:                          0.257     0.257   0.2% |
  Symmetrize density:                         0.000     0.000   0.0% |
 Hamiltonian:                                 9.217     0.001   0.0% |
  Atomic:                                     1.347     0.006   0.0% |
   XC Correction:                             1.341     1.341   0.9% |
  Calculate atomic Hamiltonians:              0.036     0.036   0.0% |
  Communicate:                                0.000     0.000   0.0% |
  Hartree integrate/restrict:                 0.245     0.245   0.2% |
  Initialize Hamiltonian:                     0.000     0.000   0.0% |
  Poisson:                                    1.352     0.082   0.1% |
   Communicate bwd 0:                         0.160     0.160   0.1% |
   Communicate bwd 1:                         0.105     0.105   0.1% |
   Communicate fwd 0:                         0.149     0.149   0.1% |
   Communicate fwd 1:                         0.154     0.154   0.1% |
   fft:                                       0.207     0.207   0.1% |
   fft2:                                      0.494     0.494   0.3% |
  XC 3D grid:                                 6.200     6.200   4.4% |-|
  vbar:                                       0.036     0.036   0.0% |
P tci:                                        0.063     0.063   0.0% |
Redistribute:                                 0.001     0.001   0.0% |
SCF-cycle:                                   61.843     0.015   0.0% |
 Density:                                     4.626     0.001   0.0% |
  Atomic density matrices:                    0.035     0.035   0.0% |
  Mix:                                        2.580     2.580   1.8% ||
  Multipole moments:                          0.008     0.008   0.0% |
  Normalize:                                  0.013     0.013   0.0% |
  Pseudo density:                             1.990     0.046   0.0% |
   Calculate density matrix:                  0.002     0.002   0.0% |
   Construct density:                         1.940     1.940   1.4% ||
   Symmetrize density:                        0.001     0.001   0.0% |
 Hamiltonian:                                55.087     0.006   0.0% |
  Atomic:                                     8.091     0.036   0.0% |
   XC Correction:                             8.055     8.055   5.7% |-|
  Calculate atomic Hamiltonians:              0.212     0.212   0.1% |
  Communicate:                                0.000     0.000   0.0% |
  Hartree integrate/restrict:                 1.473     1.473   1.0% |
  Poisson:                                    8.032     0.470   0.3% |
   Communicate bwd 0:                         0.957     0.957   0.7% |
   Communicate bwd 1:                         0.606     0.606   0.4% |
   Communicate fwd 0:                         0.914     0.914   0.6% |
   Communicate fwd 1:                         0.931     0.931   0.7% |
   fft:                                       1.228     1.228   0.9% |
   fft2:                                      2.926     2.926   2.1% ||
  XC 3D grid:                                37.084    37.084  26.2% |---------|
  vbar:                                       0.189     0.189   0.1% |
 LCAO eigensolver:                            2.114     0.005   0.0% |
  Calculate projections:                      0.002     0.002   0.0% |
  DenseAtomicCorrection:                      0.013     0.013   0.0% |
  Distribute overlap matrix:                  0.001     0.001   0.0% |
  Orbital Layouts:                            0.014     0.014   0.0% |
  Potential matrix:                           2.078     2.078   1.5% ||
ST tci:                                       0.020     0.020   0.0% |
Set symmetry:                                 0.001     0.001   0.0% |
TCI: Evaluate splines:                        0.020     0.020   0.0% |
mktci:                                        0.008     0.008   0.0% |
Other:                                       67.328    67.328  47.6% |------------------|
--------------------------------------------------------------------
Total:                                                141.501 100.0%

Memory usage: 577.82 MiB
Date: Mon Feb 17 22:02:22 2020
