
  ___ ___ ___ _ _ _  
 |   |   |_  | | | | 
 | | | | | . | | | | 
 |__ |  _|___|_____|  19.8.1
 |___|_|             

User:   hallborn@hebbe12-5
Date:   Tue Feb 18 11:11:27 2020
Arch:   x86_64
Pid:    3431
Python: 3.7.2
gpaw:   /apps/Hebbe7/software/MPI/intel/2019.1.144-GCC-8.2.0-2.31.1/impi/2018.4.274/GPAW/19.8.1-Python-3.7.2/lib/python3.7/site-packages/gpaw
_gpaw:  /apps/Hebbe7/software/MPI/intel/2019.1.144-GCC-8.2.0-2.31.1/impi/2018.4.274/GPAW/19.8.1-Python-3.7.2/bin/
        gpaw-python
ase:    /apps/Hebbe7/software/MPI/intel/2019.1.144-GCC-8.2.0-2.31.1/impi/2018.4.274/ASE/3.18.0-Python-3.7.2/lib/python3.7/site-packages/ase (version 3.18.0)
numpy:  /apps/Hebbe7/software/MPI/intel/2019.1.144-GCC-8.2.0-2.31.1/impi/2018.4.274/SciPy-bundle/2019.03/lib/python3.7/site-packages/numpy (version 1.16.2)
scipy:  /apps/Hebbe7/software/MPI/intel/2019.1.144-GCC-8.2.0-2.31.1/impi/2018.4.274/SciPy-bundle/2019.03/lib/python3.7/site-packages/scipy (version 1.2.1)
libxc:  4.3.4
units:  Angstrom and eV
cores:  1

Input parameters:
  basis: dzp
  h: 0.2
  setups: {Na: 1}
  xc: PBE

System changes: positions, numbers, cell, pbc, initial_charges, initial_magmoms 

Initialize ...

Na-setup:
  name: Sodium
  id: 8dbce52902f3add137ce7d12431c9cac
  Z: 11
  valence: 1
  core: 10
  charge: 0.0
  file: /apps/Common/Core/GPAW-setups/0.9.20000/Na.1.PBE.gz
  compensation charges: gauss, rc=0.43, lmax=2
  cutoffs: 2.36(filt), 3.60(core),
  valence states:
                energy  radius
    3s(1.00)    -2.744   1.349
    3p(0.00)    -0.743   1.349
    *s          24.468   1.349

  LCAO basis set for Na:
    Name: 1.dzp
    File: /apps/Common/Core/GPAW-setups/0.9.20000/Na.1.dzp.basis.gz
    Number of radial functions: 3
    Number of spherical harmonics: 5
      l=0, rc=11.7656 Bohr: 3s-sz confined orbital
      l=0, rc=7.1094 Bohr: 3s-dz split-valence wave
      l=1, rc=11.7656 Bohr: p-type Gaussian polarization

Reference energy: -26511.662975

Spin-paired calculation

Occupation numbers:
  Fermi-Dirac: width=0.0000 eV

Convergence criteria:
  Maximum total energy change: 0.0005 eV / electron
  Maximum integral of absolute density change: 0.0001 electrons
  Maximum integral of absolute eigenstate change: 4e-08 eV^2
  Maximum number of iterations: 333

Symmetries present (total): 1

  ( 1  0  0)
  ( 0  1  0)
  ( 0  0  1)

1 k-point (Gamma)
1 k-point in the irreducible part of the Brillouin zone
       k-points in crystal coordinates                weights
   0:     0.00000000    0.00000000    0.00000000          1/1

Wave functions: Uniform real-space grid
  Kinetic energy operator: 6*3+1=19 point O(h^6) finite-difference Laplacian
  ScaLapack parameters: grid=1x1, blocksize=None
  Wavefunction extrapolation:
    Improved wavefunction reuse through dual PAW basis 

Eigensolver
   Davidson(niter=2, smin=None, normalize=True) 

Densities:
  Coarse grid: 80*80*80 grid
  Fine grid: 160*160*160 grid
  Total Charge: 0.000000 

Density mixing:
  Method: separate
  Backend: pulay
  Linear mixing parameter: 0.25
  Mixing with 3 old densities
  No damping of long wave oscillations 

Hamiltonian:
  XC and Coulomb potentials evaluated on a 160*160*160 grid
  Using the PBE Exchange-Correlation functional
  Interpolation: tri-quintic (5. degree polynomial)
  Poisson solver: FastPoissonSolver using
    6*3+1=19 point O(h^6) finite-difference Laplacian stencil;
    FFT axes: [];
    FST axes: [0, 1, 2].
 

XC parameters: PBE with 2 nearest neighbor stencil

Memory estimate:
  Process memory now: 457.34 MiB
  Calculator: 305.34 MiB
    Density: 157.14 MiB
      Arrays: 99.53 MiB
      Localized functions: 35.04 MiB
      Mixer: 22.57 MiB
    Hamiltonian: 67.63 MiB
      Arrays: 65.10 MiB
      XC: 0.00 MiB
      Poisson: 0.00 MiB
      vbar: 2.53 MiB
    Wavefunctions: 80.58 MiB
      Arrays psit_nG: 30.09 MiB
      Eigensolver: 48.91 MiB
      Projections: 0.00 MiB
      Projectors: 1.58 MiB

Total number of cores used: 1

Number of atoms: 6
Number of atomic orbitals: 30
Number of bands in calculation: 8
Bands to converge: occupied states only
Number of valence electrons: 6

... initialized

Initializing position-dependent things.

Density initialized from atomic densities
Creating initial wave functions:
  8 bands from LCAO basis set

           .--------------------------------------.  
          /|                                      |  
         / |                                      |  
        /  |                                      |  
       /   |                                      |  
      /    |                                      |  
     /     |                                      |  
    /      |                                      |  
   /       |                                      |  
  /        |                                      |  
 *         |           Na                         |  
 |         |                                      |  
 |         |                Na                    |  
 |         |                                      |  
 |         |            Na                        |  
 |         |                    Na                |  
 |         |                                      |  
 |         |                Na                    |  
 |         |                                      |  
 |         |             Na                       |  
 |         .--------------------------------------.  
 |        /                                      /   
 |       /                                      /    
 |      /                                      /     
 |     /                                      /      
 |    /                                      /       
 |   /                                      /        
 |  /                                      /         
 | /                                      /          
 |/                                      /           
 *--------------------------------------*            

Positions:
   0 Na    11.424955    5.046215    9.661160    ( 0.0000,  0.0000,  0.0000)
   1 Na     9.091214    7.135542   10.719357    ( 0.0000,  0.0000,  0.0000)
   2 Na     6.710298    9.263471   11.516303    ( 0.0000,  0.0000,  0.0000)
   3 Na     7.680133    8.011559    5.125248    ( 0.0000,  0.0000,  0.0000)
   4 Na     9.624253    6.463545    7.292195    ( 0.0000,  0.0000,  0.0000)
   5 Na     7.055205    8.690646    8.283979    ( 0.0000,  0.0000,  0.0000)

Unit cell:
           periodic     x           y           z      points  spacing
  1. axis:    no    16.000000    0.000000    0.000000    80     0.2000
  2. axis:    no     0.000000   16.000000    0.000000    80     0.2000
  3. axis:    no     0.000000    0.000000   16.000000    80     0.2000

  Lengths:  16.000000  16.000000  16.000000
  Angles:   90.000000  90.000000  90.000000

Effective grid spacing dv^(1/3) = 0.2000

                     log10-error:    total        iterations:
           time      wfs    density  energy       fermi  poisson
iter:   1  11:11:40  +1.49   +inf    -5.067577    0      1      
iter:   2  11:11:46  -0.55  -0.51    -4.858559    0      1      
iter:   3  11:11:51  -0.29  -0.72    -4.817232    0      1      
iter:   4  11:11:57  -0.60  -1.09    -4.817972    0      1      
iter:   5  11:12:03  -0.89  -1.38    -4.818099    0      1      
iter:   6  11:12:08  -1.38  -1.76    -4.818782    0      1      
iter:   7  11:12:14  -1.62  -1.82    -4.819489    0      1      
iter:   8  11:12:19  -2.32  -2.32    -4.819462    0      1      
iter:   9  11:12:25  -2.47  -2.35    -4.819569    0      1      
iter:  10  11:12:30  -2.86  -3.01    -4.819588    0      1      
iter:  11  11:12:36  -3.29  -3.37    -4.819596    0      1      
iter:  12  11:12:41  -3.74  -3.32    -4.819598    0      1      
iter:  13  11:12:47  -3.99  -3.18    -4.819601    0      1      
iter:  14  11:12:53  -4.38  -3.36    -4.819602    0      1      
iter:  15  11:12:58  -4.62  -3.41    -4.819603    0      1      
iter:  16  11:13:04  -5.28  -3.47    -4.819603    0      1      
iter:  17  11:13:09  -5.44  -3.85    -4.819603    0      1      
iter:  18  11:13:15  -5.92  -4.04    -4.819603    0      1      
iter:  19  11:13:20  -6.26  -4.70    -4.819603    0      1      
iter:  20  11:13:26  -6.55  -4.84    -4.819603    0      1      
iter:  21  11:13:31  -6.81  -4.97    -4.819603    0      1      
iter:  22  11:13:37  -7.06  -5.17    -4.819603    0      1      
iter:  23  11:13:42  -7.33  -5.41    -4.819603    0      1      
iter:  24  11:13:48  -7.59  -5.48    -4.819603    0      1      

Converged after 24 iterations.

Dipole moment: (0.036980, -0.016905, 0.050875) |e|*Ang

Energy contributions relative to reference atoms: (reference = -26511.662975)

Kinetic:        +11.809425
Potential:      -10.731177
External:        +0.000000
XC:              -5.897759
Entropy (-ST):   +0.000000
Local:           -0.000092
--------------------------
Free energy:     -4.819603
Extrapolated:    -4.819603

Fermi level: -2.39232

 Band  Eigenvalues  Occupancy
    0     -4.03616    2.00000
    1     -3.03911    2.00000
    2     -3.03859    2.00000
    3     -1.74604    0.00000
    4     -1.65130    0.00000
    5     -1.63545    0.00000
    6     -0.59992    0.00000
    7     -0.58185    0.00000

Gap: 1.293 eV
Transition (v -> c):
  (s=0, k=0, n=2, [0.00, 0.00, 0.00]) -> (s=0, k=0, n=3, [0.00, 0.00, 0.00])

Forces in eV/Ang:
  0 Na    0.06793   -0.05945    0.02726
  1 Na    0.01743   -0.01415    0.03396
  2 Na   -0.05647    0.05508    0.06471
  3 Na   -0.02616    0.01573   -0.10508
  4 Na    0.02060   -0.02049   -0.03050
  5 Na   -0.03058    0.02809   -0.00325

System changes: positions 

Initializing position-dependent things.

Density initialized from wave functions
           .--------------------------------------.  
          /|                                      |  
         / |                                      |  
        /  |                                      |  
       /   |                                      |  
      /    |                                      |  
     /     |                                      |  
    /      |                                      |  
   /       |                                      |  
  /        |                                      |  
 *         |           Na                         |  
 |         |                                      |  
 |         |                Na                    |  
 |         |                                      |  
 |         |            Na                        |  
 |         |                    Na                |  
 |         |                                      |  
 |         |                Na                    |  
 |         |                                      |  
 |         |             Na                       |  
 |         .--------------------------------------.  
 |        /                                      /   
 |       /                                      /    
 |      /                                      /     
 |     /                                      /      
 |    /                                      /       
 |   /                                      /        
 |  /                                      /         
 | /                                      /          
 |/                                      /           
 *--------------------------------------*            

Positions:
   0 Na    11.425926    5.045365    9.661550    ( 0.0000,  0.0000,  0.0000)
   1 Na     9.091463    7.135339   10.719842    ( 0.0000,  0.0000,  0.0000)
   2 Na     6.709491    9.264258   11.517227    ( 0.0000,  0.0000,  0.0000)
   3 Na     7.679759    8.011783    5.123747    ( 0.0000,  0.0000,  0.0000)
   4 Na     9.624548    6.463252    7.291759    ( 0.0000,  0.0000,  0.0000)
   5 Na     7.054768    8.691047    8.283933    ( 0.0000,  0.0000,  0.0000)

Unit cell:
           periodic     x           y           z      points  spacing
  1. axis:    no    16.000000    0.000000    0.000000    80     0.2000
  2. axis:    no     0.000000   16.000000    0.000000    80     0.2000
  3. axis:    no     0.000000    0.000000   16.000000    80     0.2000

  Lengths:  16.000000  16.000000  16.000000
  Angles:   90.000000  90.000000  90.000000

Effective grid spacing dv^(1/3) = 0.2000

                     log10-error:    total        iterations:
           time      wfs    density  energy       fermi  poisson
iter:   1  11:13:54  -3.57   +inf    -4.820126    0      1      
iter:   2  11:14:00  -4.53  -2.87    -4.820121    0      1      
iter:   3  11:14:05  -5.16  -3.29    -4.820120    0      1      
iter:   4  11:14:11  -5.64  -3.68    -4.820120    0      1      
iter:   5  11:14:16  -6.00  -4.18    -4.820120    0      1      
iter:   6  11:14:22  -6.44  -4.48    -4.820120    0      1      
iter:   7  11:14:27  -6.81  -4.49    -4.820120    0      1      
iter:   8  11:14:33  -6.94  -4.54    -4.820120    0      1      
iter:   9  11:14:38  -7.12  -4.92    -4.820120    0      1      
iter:  10  11:14:44  -7.58  -5.55    -4.820120    0      1      

Converged after 10 iterations.

Dipole moment: (0.037096, -0.016987, 0.050970) |e|*Ang

Energy contributions relative to reference atoms: (reference = -26511.662975)

Kinetic:        +11.773816
Potential:      -10.703011
External:        +0.000000
XC:              -5.890839
Entropy (-ST):   +0.000000
Local:           -0.000086
--------------------------
Free energy:     -4.820120
Extrapolated:    -4.820120

Fermi level: -2.39229

 Band  Eigenvalues  Occupancy
    0     -4.03524    2.00000
    1     -3.03889    2.00000
    2     -3.03826    2.00000
    3     -1.74633    0.00000
    4     -1.65152    0.00000
    5     -1.63560    0.00000
    6     -0.60618    0.00000
    7     -0.58492    0.00000

Gap: 1.292 eV
Transition (v -> c):
  (s=0, k=0, n=2, [0.00, 0.00, 0.00]) -> (s=0, k=0, n=3, [0.00, 0.00, 0.00])

Forces in eV/Ang:
  0 Na    0.06700   -0.05867    0.02690
  1 Na    0.01699   -0.01380    0.03339
  2 Na   -0.05561    0.05424    0.06364
  3 Na   -0.02586    0.01553   -0.10357
  4 Na    0.02017   -0.02009   -0.03011
  5 Na   -0.03000    0.02762   -0.00332

System changes: positions 

Initializing position-dependent things.

Density initialized from wave functions
           .--------------------------------------.  
          /|                                      |  
         / |                                      |  
        /  |                                      |  
       /   |                                      |  
      /    |                                      |  
     /     |                                      |  
    /      |                                      |  
   /       |                                      |  
  /        |                                      |  
 *         |           Na                         |  
 |         |                                      |  
 |         |                Na                    |  
 |         |                                      |  
 |         |            Na                        |  
 |         |                    Na                |  
 |         |                                      |  
 |         |                 Na                   |  
 |         |                                      |  
 |         |             Na                       |  
 |         .--------------------------------------.  
 |        /                                      /   
 |       /                                      /    
 |      /                                      /     
 |     /                                      /      
 |    /                                      /       
 |   /                                      /        
 |  /                                      /         
 | /                                      /          
 |/                                      /           
 *--------------------------------------*            

Positions:
   0 Na    11.450771    5.023611    9.671526    ( 0.0000,  0.0000,  0.0000)
   1 Na     9.097763    7.130222   10.732223    ( 0.0000,  0.0000,  0.0000)
   2 Na     6.688869    9.284372   11.540827    ( 0.0000,  0.0000,  0.0000)
   3 Na     7.670170    8.017541    5.085342    ( 0.0000,  0.0000,  0.0000)
   4 Na     9.632028    6.455800    7.280593    ( 0.0000,  0.0000,  0.0000)
   5 Na     7.043643    8.701288    8.282700    ( 0.0000,  0.0000,  0.0000)

Unit cell:
           periodic     x           y           z      points  spacing
  1. axis:    no    16.000000    0.000000    0.000000    80     0.2000
  2. axis:    no     0.000000   16.000000    0.000000    80     0.2000
  3. axis:    no     0.000000    0.000000   16.000000    80     0.2000

  Lengths:  16.000000  16.000000  16.000000
  Angles:   90.000000  90.000000  90.000000

Effective grid spacing dv^(1/3) = 0.2000

                     log10-error:    total        iterations:
           time      wfs    density  energy       fermi  poisson
iter:   1  11:14:50  -0.77   +inf    -4.834844    0      1      
iter:   2  11:14:56  -1.73  -1.47    -4.831286    0      1      
iter:   3  11:15:01  -2.37  -1.87    -4.830681    0      1      
iter:   4  11:15:07  -2.87  -2.27    -4.830700    0      1      
iter:   5  11:15:12  -3.20  -2.69    -4.830711    0      1      
iter:   6  11:15:18  -3.70  -3.08    -4.830717    0      1      
iter:   7  11:15:23  -4.12  -3.08    -4.830720    0      1      
iter:   8  11:15:29  -4.15  -3.10    -4.830724    0      1      
iter:   9  11:15:34  -4.30  -3.53    -4.830724    0      1      
iter:  10  11:15:40  -5.14  -3.50    -4.830725    0      1      
iter:  11  11:15:45  -5.43  -3.92    -4.830725    0      1      
iter:  12  11:15:51  -5.62  -4.14    -4.830725    0      1      
iter:  13  11:15:57  -5.92  -4.50    -4.830725    0      1      
iter:  14  11:16:02  -6.29  -4.78    -4.830725    0      1      
iter:  15  11:16:08  -6.71  -4.77    -4.830725    0      1      
iter:  16  11:16:13  -6.94  -4.47    -4.830725    0      1      
iter:  17  11:16:19  -7.31  -4.78    -4.830725    0      1      
iter:  18  11:16:24  -7.58  -4.76    -4.830725    0      1      

Converged after 18 iterations.

Dipole moment: (0.040091, -0.019164, 0.053510) |e|*Ang

Energy contributions relative to reference atoms: (reference = -26511.662975)

Kinetic:        +10.879345
Potential:       -9.994545
External:        +0.000000
XC:              -5.715335
Entropy (-ST):   +0.000000
Local:           -0.000189
--------------------------
Free energy:     -4.830725
Extrapolated:    -4.830725

Fermi level: -2.39076

 Band  Eigenvalues  Occupancy
    0     -4.01196    2.00000
    1     -3.03338    2.00000
    2     -3.02977    2.00000
    3     -1.75176    0.00000
    4     -1.65713    0.00000
    5     -1.63901    0.00000
    6     -0.71078    0.00000
    7     -0.59800    0.00000

Gap: 1.278 eV
Transition (v -> c):
  (s=0, k=0, n=2, [0.00, 0.00, 0.00]) -> (s=0, k=0, n=3, [0.00, 0.00, 0.00])

Forces in eV/Ang:
  0 Na    0.04307   -0.03912    0.01750
  1 Na    0.00637   -0.00521    0.01928
  2 Na   -0.03460    0.03324    0.03784
  3 Na   -0.01675    0.00960   -0.06577
  4 Na    0.00960   -0.01013   -0.02015
  5 Na   -0.01577    0.01589   -0.00483

System changes: positions 

Initializing position-dependent things.

Density initialized from wave functions
           .--------------------------------------.  
          /|                                      |  
         / |                                      |  
        /  |                                      |  
       /   |                                      |  
      /    |                                      |  
     /     |                                      |  
    /      |                                      |  
   /       |                                      |  
  /        |                                      |  
 *         |           Na                         |  
 |         |                                      |  
 |         |                Na                    |  
 |         |                                      |  
 |         |            Na                        |  
 |         |                    Na                |  
 |         |                                      |  
 |         |                 Na                   |  
 |         |                                      |  
 |         |             Na                       |  
 |         .--------------------------------------.  
 |        /                                      /   
 |       /                                      /    
 |      /                                      /     
 |     /                                      /      
 |    /                                      /       
 |   /                                      /        
 |  /                                      /         
 | /                                      /          
 |/                                      /           
 *--------------------------------------*            

Positions:
   0 Na    11.475629    5.001814    9.681511    ( 0.0000,  0.0000,  0.0000)
   1 Na     9.103961    7.125186   10.744559    ( 0.0000,  0.0000,  0.0000)
   2 Na     6.668264    9.304457   11.564368    ( 0.0000,  0.0000,  0.0000)
   3 Na     7.660574    8.023292    5.046939    ( 0.0000,  0.0000,  0.0000)
   4 Na     9.639435    6.448410    7.269403    ( 0.0000,  0.0000,  0.0000)
   5 Na     7.032594    8.711491    8.281405    ( 0.0000,  0.0000,  0.0000)

Unit cell:
           periodic     x           y           z      points  spacing
  1. axis:    no    16.000000    0.000000    0.000000    80     0.2000
  2. axis:    no     0.000000   16.000000    0.000000    80     0.2000
  3. axis:    no     0.000000    0.000000   16.000000    80     0.2000

  Lengths:  16.000000  16.000000  16.000000
  Angles:   90.000000  90.000000  90.000000

Effective grid spacing dv^(1/3) = 0.2000

                     log10-error:    total        iterations:
           time      wfs    density  energy       fermi  poisson
iter:   1  11:16:31  -0.78   +inf    -4.840399    0      1      
iter:   2  11:16:36  -1.73  -1.48    -4.837055    0      1      
iter:   3  11:16:42  -2.39  -1.88    -4.836471    0      1      
iter:   4  11:16:47  -2.89  -2.28    -4.836492    0      1      
iter:   5  11:16:53  -3.24  -2.70    -4.836502    0      1      
iter:   6  11:16:58  -3.74  -3.09    -4.836508    0      1      
iter:   7  11:17:04  -4.14  -3.09    -4.836511    0      1      
iter:   8  11:17:09  -4.18  -3.12    -4.836514    0      1      
iter:   9  11:17:15  -4.39  -3.65    -4.836515    0      1      
iter:  10  11:17:20  -5.08  -3.80    -4.836515    0      1      
iter:  11  11:17:26  -5.38  -4.03    -4.836515    0      1      
iter:  12  11:17:32  -5.61  -4.13    -4.836516    0      1      
iter:  13  11:17:37  -5.93  -4.38    -4.836516    0      1      
iter:  14  11:17:43  -6.21  -4.51    -4.836516    0      1      
iter:  15  11:17:48  -6.61  -4.91    -4.836516    0      1      
iter:  16  11:17:54  -6.93  -4.89    -4.836516    0      1      
iter:  17  11:17:59  -7.21  -4.87    -4.836516    0      1      
iter:  18  11:18:05  -7.41  -4.66    -4.836516    0      1      

Converged after 18 iterations.

Dipole moment: (0.043271, -0.021441, 0.056168) |e|*Ang

Energy contributions relative to reference atoms: (reference = -26511.662975)

Kinetic:        +10.017336
Potential:       -9.310146
External:        +0.000000
XC:              -5.543394
Entropy (-ST):   +0.000000
Local:           -0.000312
--------------------------
Free energy:     -4.836516
Extrapolated:    -4.836516

Fermi level: -2.38946

 Band  Eigenvalues  Occupancy
    0     -3.98927    2.00000
    1     -3.02791    2.00000
    2     -3.02139    2.00000
    3     -1.75753    0.00000
    4     -1.66294    0.00000
    5     -1.64243    0.00000
    6     -1.17215    0.00000
    7     -0.60914    0.00000

Gap: 1.264 eV
Transition (v -> c):
  (s=0, k=0, n=2, [0.00, 0.00, 0.00]) -> (s=0, k=0, n=3, [0.00, 0.00, 0.00])

Forces in eV/Ang:
  0 Na    0.02025   -0.02060    0.00798
  1 Na   -0.00290    0.00234    0.00614
  2 Na   -0.01661    0.01486    0.01552
  3 Na   -0.00677    0.00392   -0.02926
  4 Na   -0.00012   -0.00098   -0.01077
  5 Na   -0.00291    0.00543   -0.00584

System changes: positions 

Initializing position-dependent things.

Density initialized from wave functions
           .--------------------------------------.  
          /|                                      |  
         / |                                      |  
        /  |                                      |  
       /   |                                      |  
      /    |                                      |  
     /     |                                      |  
    /      |                                      |  
   /       |                                      |  
  /        |                                      |  
 *         |           Na                         |  
 |         |                                      |  
 |         |                Na                    |  
 |         |                                      |  
 |         |            Na                        |  
 |         |                    Na                |  
 |         |                                      |  
 |         |                 Na                   |  
 |         |                                      |  
 |         |             Na                       |  
 |         .--------------------------------------.  
 |        /                                      /   
 |       /                                      /    
 |      /                                      /     
 |     /                                      /      
 |    /                                      /       
 |   /                                      /        
 |  /                                      /         
 | /                                      /          
 |/                                      /           
 *--------------------------------------*            

Positions:
   0 Na    11.494637    4.985089    9.689140    ( 0.0000,  0.0000,  0.0000)
   1 Na     9.108548    7.121460   10.753917    ( 0.0000,  0.0000,  0.0000)
   2 Na     6.652500    9.319796   11.582309    ( 0.0000,  0.0000,  0.0000)
   3 Na     7.653263    8.027675    5.017614    ( 0.0000,  0.0000,  0.0000)
   4 Na     9.644979    6.442856    7.260813    ( 0.0000,  0.0000,  0.0000)
   5 Na     7.024262    8.719239    8.280323    ( 0.0000,  0.0000,  0.0000)

Unit cell:
           periodic     x           y           z      points  spacing
  1. axis:    no    16.000000    0.000000    0.000000    80     0.2000
  2. axis:    no     0.000000   16.000000    0.000000    80     0.2000
  3. axis:    no     0.000000    0.000000   16.000000    80     0.2000

  Lengths:  16.000000  16.000000  16.000000
  Angles:   90.000000  90.000000  90.000000

Effective grid spacing dv^(1/3) = 0.2000

                     log10-error:    total        iterations:
           time      wfs    density  energy       fermi  poisson
iter:   1  11:18:11  -1.01   +inf    -4.839917    0      1      
iter:   2  11:18:17  -1.96  -1.63    -4.838298    0      1      
iter:   3  11:18:22  -2.64  -1.99    -4.837916    0      1      
iter:   4  11:18:28  -3.20  -2.42    -4.837931    0      1      
iter:   5  11:18:33  -3.49  -2.77    -4.837937    0      1      
iter:   6  11:18:39  -4.00  -3.21    -4.837941    0      1      
iter:   7  11:18:44  -4.39  -3.22    -4.837942    0      1      
iter:   8  11:18:50  -4.50  -3.31    -4.837944    0      1      
iter:   9  11:18:56  -4.84  -3.88    -4.837944    0      1      
iter:  10  11:19:01  -5.18  -4.12    -4.837944    0      1      
iter:  11  11:19:07  -5.48  -4.27    -4.837944    0      1      
iter:  12  11:19:12  -5.92  -4.89    -4.837944    0      1      
iter:  13  11:19:18  -6.27  -4.65    -4.837944    0      1      
iter:  14  11:19:23  -6.55  -4.54    -4.837944    0      1      
iter:  15  11:19:29  -6.75  -4.39    -4.837944    0      1      
iter:  16  11:19:34  -7.08  -4.24    -4.837944    0      1      
iter:  17  11:19:40  -7.39  -4.75    -4.837944    0      1      
iter:  18  11:19:46  -7.51  -4.77    -4.837944    0      1      

Converged after 18 iterations.

Dipole moment: (0.045752, -0.023224, 0.058197) |e|*Ang

Energy contributions relative to reference atoms: (reference = -26511.662975)

Kinetic:         +9.380862
Potential:       -8.803734
External:        +0.000000
XC:              -5.414678
Entropy (-ST):   +0.000000
Local:           -0.000395
--------------------------
Free energy:     -4.837944
Extrapolated:    -4.837944

Fermi level: -2.38859

 Band  Eigenvalues  Occupancy
    0     -3.97229    2.00000
    1     -3.02366    2.00000
    2     -3.01505    2.00000
    3     -1.76214    0.00000
    4     -1.66742    0.00000
    5     -1.64504    0.00000
    6     -1.40668    0.00000
    7     -0.61753    0.00000

Gap: 1.253 eV
Transition (v -> c):
  (s=0, k=0, n=2, [0.00, 0.00, 0.00]) -> (s=0, k=0, n=3, [0.00, 0.00, 0.00])

Forces in eV/Ang:
  0 Na    0.00470   -0.00798    0.00187
  1 Na   -0.00900    0.00731   -0.00333
  2 Na   -0.00334    0.00150   -0.00097
  3 Na    0.00019   -0.00002   -0.00328
  4 Na   -0.00697    0.00548   -0.00378
  5 Na    0.00610   -0.00183   -0.00606

Timing:                                      incl.     excl.
-------------------------------------------------------------------
Density initialized from wave functions:     0.914     0.914   0.1% |
 Symmetrize density:                         0.000     0.000   0.0% |
Forces:                                      1.242     1.242   0.1% |
Hamiltonian:                                18.084     0.001   0.0% |
 Atomic:                                     1.366     0.007   0.0% |
  XC Correction:                             1.359     1.359   0.1% |
 Calculate atomic Hamiltonians:              0.067     0.067   0.0% |
 Communicate:                                0.000     0.000   0.0% |
 Hartree integrate/restrict:                 0.589     0.589   0.1% |
 Initialize Hamiltonian:                     0.000     0.000   0.0% |
 Poisson:                                    3.170     0.189   0.0% |
  Communicate bwd 0:                         0.393     0.393   0.0% |
  Communicate bwd 1:                         0.234     0.234   0.0% |
  Communicate fwd 0:                         0.324     0.324   0.0% |
  Communicate fwd 1:                         0.370     0.370   0.0% |
  fft:                                       0.446     0.446   0.0% |
  fft2:                                      1.213     1.213   0.1% |
 XC 3D grid:                                12.810    12.810   1.4% ||
 vbar:                                       0.080     0.080   0.0% |
LCAO initialization:                         0.275     0.025   0.0% |
 LCAO eigensolver:                           0.122     0.001   0.0% |
  Calculate projections:                     0.000     0.000   0.0% |
  DenseAtomicCorrection:                     0.000     0.000   0.0% |
  Distribute overlap matrix:                 0.000     0.000   0.0% |
  Orbital Layouts:                           0.002     0.002   0.0% |
  Potential matrix:                          0.119     0.119   0.0% |
 LCAO to grid:                               0.103     0.103   0.0% |
 Set positions (LCAO WFS):                   0.026     0.005   0.0% |
  Basic WFS set positions:                   0.001     0.001   0.0% |
  Basis functions set positions:             0.000     0.000   0.0% |
  P tci:                                     0.014     0.014   0.0% |
  ST tci:                                    0.004     0.004   0.0% |
  mktci:                                     0.002     0.002   0.0% |
Redistribute:                                0.003     0.003   0.0% |
SCF-cycle:                                 469.547     0.082   0.0% |
 Davidson:                                 150.172    81.177   8.7% |--|
  Apply hamiltonian:                        13.964    13.964   1.5% ||
  Subspace diag:                            16.994     0.016   0.0% |
   calc_h_matrix:                           14.720     0.735   0.1% |
    Apply hamiltonian:                      13.985    13.985   1.5% ||
   diagonalize:                              0.029     0.029   0.0% |
   rotate_psi:                               2.229     2.229   0.2% |
  calc. matrices:                           33.548     5.615   0.6% |
   Apply hamiltonian:                       27.933    27.933   3.0% ||
  diagonalize:                               0.076     0.076   0.0% |
  rotate_psi:                                4.414     4.414   0.5% |
 Density:                                   19.666     0.004   0.0% |
  Atomic density matrices:                   0.104     0.104   0.0% |
  Mix:                                      18.264    18.264   1.9% ||
  Multipole moments:                         0.024     0.024   0.0% |
  Pseudo density:                            1.269     1.264   0.1% |
   Symmetrize density:                       0.005     0.005   0.0% |
 Hamiltonian:                              299.456     0.016   0.0% |
  Atomic:                                   22.673     0.107   0.0% |
   XC Correction:                           22.566    22.566   2.4% ||
  Calculate atomic Hamiltonians:             1.080     1.080   0.1% |
  Communicate:                               0.002     0.002   0.0% |
  Hartree integrate/restrict:                9.782     9.782   1.0% |
  Poisson:                                  52.800     3.053   0.3% |
   Communicate bwd 0:                        6.593     6.593   0.7% |
   Communicate bwd 1:                        3.930     3.930   0.4% |
   Communicate fwd 0:                        5.400     5.400   0.6% |
   Communicate fwd 1:                        6.167     6.167   0.7% |
   fft:                                      7.431     7.431   0.8% |
   fft2:                                    20.226    20.226   2.2% ||
  XC 3D grid:                              211.866   211.866  22.6% |--------|
  vbar:                                      1.237     1.237   0.1% |
 Orthonormalize:                             0.172     0.001   0.0% |
  calc_s_matrix:                             0.038     0.038   0.0% |
  inverse-cholesky:                          0.003     0.003   0.0% |
  projections:                               0.039     0.039   0.0% |
  rotate_psi_s:                              0.091     0.091   0.0% |
Set symmetry:                                0.001     0.001   0.0% |
Other:                                     447.694   447.694  47.7% |------------------|
-------------------------------------------------------------------
Total:                                               937.761 100.0%

Memory usage: 1.19 GiB
Date: Tue Feb 18 11:27:05 2020
