
  ___ ___ ___ _ _ _  
 |   |   |_  | | | | 
 | | | | | . | | | | 
 |__ |  _|___|_____|  19.8.1
 |___|_|             

User:   hallborn@hebbe12-1
Date:   Mon Feb 17 22:01:18 2020
Arch:   x86_64
Pid:    18442
Python: 3.7.2
gpaw:   /apps/Hebbe7/software/MPI/intel/2019.1.144-GCC-8.2.0-2.31.1/impi/2018.4.274/GPAW/19.8.1-Python-3.7.2/lib/python3.7/site-packages/gpaw
_gpaw:  /apps/Hebbe7/software/MPI/intel/2019.1.144-GCC-8.2.0-2.31.1/impi/2018.4.274/GPAW/19.8.1-Python-3.7.2/bin/
        gpaw-python
ase:    /apps/Hebbe7/software/MPI/intel/2019.1.144-GCC-8.2.0-2.31.1/impi/2018.4.274/ASE/3.18.0-Python-3.7.2/lib/python3.7/site-packages/ase (version 3.18.0)
numpy:  /apps/Hebbe7/software/MPI/intel/2019.1.144-GCC-8.2.0-2.31.1/impi/2018.4.274/SciPy-bundle/2019.03/lib/python3.7/site-packages/numpy (version 1.16.2)
scipy:  /apps/Hebbe7/software/MPI/intel/2019.1.144-GCC-8.2.0-2.31.1/impi/2018.4.274/SciPy-bundle/2019.03/lib/python3.7/site-packages/scipy (version 1.2.1)
libxc:  4.3.4
units:  Angstrom and eV
cores:  1

Input parameters:
  basis: dzp
  h: 0.25
  mode: lcao
  setups: {Na: 1}
  xc: PBE

System changes: positions, numbers, cell, pbc, initial_charges, initial_magmoms 

Initialize ...

Na-setup:
  name: Sodium
  id: 8dbce52902f3add137ce7d12431c9cac
  Z: 11
  valence: 1
  core: 10
  charge: 0.0
  file: /apps/Common/Core/GPAW-setups/0.9.20000/Na.1.PBE.gz
  compensation charges: gauss, rc=0.43, lmax=2
  cutoffs: 2.36(filt), 3.60(core),
  valence states:
                energy  radius
    3s(1.00)    -2.744   1.349
    3p(0.00)    -0.743   1.349
    *s          24.468   1.349

  LCAO basis set for Na:
    Name: 1.dzp
    File: /apps/Common/Core/GPAW-setups/0.9.20000/Na.1.dzp.basis.gz
    Number of radial functions: 3
    Number of spherical harmonics: 5
      l=0, rc=11.7656 Bohr: 3s-sz confined orbital
      l=0, rc=7.1094 Bohr: 3s-dz split-valence wave
      l=1, rc=11.7656 Bohr: p-type Gaussian polarization

Reference energy: -26511.662975

Spin-paired calculation

Occupation numbers:
  Fermi-Dirac: width=0.0000 eV

Convergence criteria:
  Maximum total energy change: 0.0005 eV / electron
  Maximum integral of absolute density change: 0.0001 electrons
  Maximum integral of absolute eigenstate change: 4e-08 eV^2
  Maximum number of iterations: 333

Symmetries present (total): 1

  ( 1  0  0)
  ( 0  1  0)
  ( 0  0  1)

1 k-point (Gamma)
1 k-point in the irreducible part of the Brillouin zone
       k-points in crystal coordinates                weights
   0:     0.00000000    0.00000000    0.00000000          1/1

Wave functions: LCAO
  Diagonalizer: Serial LAPACK
  Atomic Correction: dense with blas
  Datatype: float
 

Eigensolver
   LCAO using direct dense diagonalizer 

Densities:
  Coarse grid: 64*64*64 grid
  Fine grid: 128*128*128 grid
  Total Charge: 0.000000 

Density mixing:
  Method: separate
  Backend: pulay
  Linear mixing parameter: 0.25
  Mixing with 3 old densities
  No damping of long wave oscillations 

Hamiltonian:
  XC and Coulomb potentials evaluated on a 128*128*128 grid
  Using the PBE Exchange-Correlation functional
  Interpolation: tri-quintic (5. degree polynomial)
  Poisson solver: FastPoissonSolver using
    6*3+1=19 point O(h^6) finite-difference Laplacian stencil;
    FFT axes: [];
    FST axes: [0, 1, 2].
 

XC parameters: PBE with 2 nearest neighbor stencil

Memory estimate:
  Process memory now: 470.01 MiB
  Calculator: 127.06 MiB
    Density: 80.09 MiB
      Arrays: 50.70 MiB
      Localized functions: 17.94 MiB
      Mixer: 11.45 MiB
    Hamiltonian: 34.46 MiB
      Arrays: 33.16 MiB
      XC: 0.00 MiB
      Poisson: 0.00 MiB
      vbar: 1.29 MiB
    Wavefunctions: 12.52 MiB
      C [qnM]: 0.00 MiB
      S, T [2 x qmm]: 0.01 MiB
      P [aqMi]: 0.00 MiB
      BasisFunctions: 12.50 MiB
      Eigensolver: 0.00 MiB

Total number of cores used: 1

Number of atoms: 6
Number of atomic orbitals: 30
Number of bands in calculation: 8
Bands to converge: occupied states only
Number of valence electrons: 6

... initialized

Initializing position-dependent things.

Density initialized from atomic densities
           .--------------------------------------.  
          /|                                      |  
         / |                                      |  
        /  |                                      |  
       /   |                                      |  
      /    |                                      |  
     /     |                                      |  
    /      |                                      |  
   /       |                                      |  
  /        |                                      |  
 *         |                                      |  
 |         |          Na                          |  
 |         |                                      |  
 |         |       Na      Na                     |  
 |         |                Na                    |  
 |         |                                      |  
 |         |                                      |  
 |         |             Na   Na                  |  
 |         |                                      |  
 |         |                                      |  
 |         .--------------------------------------.  
 |        /                                      /   
 |       /                                      /    
 |      /                                      /     
 |     /                                      /      
 |    /                                      /       
 |   /                                      /        
 |  /                                      /         
 | /                                      /          
 |/                                      /           
 *--------------------------------------*            

Positions:
   0 Na     8.210231    9.489933    8.656516    ( 0.0000,  0.0000,  0.0000)
   1 Na     6.417931    8.101846   10.968460    ( 0.0000,  0.0000,  0.0000)
   2 Na     5.009862    9.947279    8.321395    ( 0.0000,  0.0000,  0.0000)
   3 Na     7.211492    9.790525    5.577356    ( 0.0000,  0.0000,  0.0000)
   4 Na     9.992557    7.848605    6.505352    ( 0.0000,  0.0000,  0.0000)
   5 Na     9.477264    6.754058    9.822530    ( 0.0000,  0.0000,  0.0000)

Unit cell:
           periodic     x           y           z      points  spacing
  1. axis:    no    16.000000    0.000000    0.000000    64     0.2500
  2. axis:    no     0.000000   16.000000    0.000000    64     0.2500
  3. axis:    no     0.000000    0.000000   16.000000    64     0.2500

  Lengths:  16.000000  16.000000  16.000000
  Angles:   90.000000  90.000000  90.000000

Effective grid spacing dv^(1/3) = 0.2500

                     log10-error:    total        iterations:
           time      wfs    density  energy       fermi  poisson
iter:   1  22:01:23          +inf    -4.614685    0      1      
iter:   2  22:01:25         -0.64    -4.448053    0      1      
iter:   3  22:01:27         -0.87    -4.378411    0      1      
iter:   4  22:01:29         -1.39    -4.374578    0      1      
iter:   5  22:01:31         -2.05    -4.374496    0      1      
iter:   6  22:01:34         -2.22    -4.374472    0      1      
iter:   7  22:01:36         -2.60    -4.374471    0      1      
iter:   8  22:01:38         -3.06    -4.374471    0      1      
iter:   9  22:01:40         -3.24    -4.374471    0      1      
iter:  10  22:01:42         -4.08    -4.374471    0      1      

Converged after 10 iterations.

Dipole moment: (0.067440, 0.114751, 0.050206) |e|*Ang

Energy contributions relative to reference atoms: (reference = -26511.662975)

Kinetic:        +20.655582
Potential:      -18.124604
External:        +0.000000
XC:              -6.929451
Entropy (-ST):   +0.000000
Local:           +0.024002
--------------------------
Free energy:     -4.374471
Extrapolated:    -4.374471

Fermi level: -2.29943

 Band  Eigenvalues  Occupancy
    0     -4.24990    2.00000
    1     -2.97403    2.00000
    2     -2.96536    2.00000
    3     -1.63350    0.00000
    4     -1.44836    0.00000
    5     -1.44071    0.00000
    6      2.08566    0.00000
    7      2.08883    0.00000

Gap: 1.332 eV
Transition (v -> c):
  (s=0, k=0, n=2, [0.00, 0.00, 0.00]) -> (s=0, k=0, n=3, [0.00, 0.00, 0.00])

Forces in eV/Ang:
  0 Na    0.04753    0.10158    0.03143
  1 Na   -0.05242   -0.03924    0.09322
  2 Na   -0.10273    0.03723   -0.00662
  3 Na   -0.02651    0.03070   -0.10220
  4 Na    0.07740   -0.04777   -0.07016
  5 Na    0.05903   -0.08329    0.05192

System changes: positions 

Initializing position-dependent things.

Density initialized from wave functions
           .--------------------------------------.  
          /|                                      |  
         / |                                      |  
        /  |                                      |  
       /   |                                      |  
      /    |                                      |  
     /     |                                      |  
    /      |                                      |  
   /       |                                      |  
  /        |                                      |  
 *         |                                      |  
 |         |          Na                          |  
 |         |                                      |  
 |         |       Na      Na                     |  
 |         |                Na                    |  
 |         |                                      |  
 |         |                                      |  
 |         |             Na   Na                  |  
 |         |                                      |  
 |         |                                      |  
 |         .--------------------------------------.  
 |        /                                      /   
 |       /                                      /    
 |      /                                      /     
 |     /                                      /      
 |    /                                      /       
 |   /                                      /        
 |  /                                      /         
 | /                                      /          
 |/                                      /           
 *--------------------------------------*            

Positions:
   0 Na     8.210910    9.491384    8.656965    ( 0.0000,  0.0000,  0.0000)
   1 Na     6.417182    8.101285   10.969791    ( 0.0000,  0.0000,  0.0000)
   2 Na     5.008395    9.947811    8.321300    ( 0.0000,  0.0000,  0.0000)
   3 Na     7.211114    9.790964    5.575896    ( 0.0000,  0.0000,  0.0000)
   4 Na     9.993663    7.847923    6.504350    ( 0.0000,  0.0000,  0.0000)
   5 Na     9.478107    6.752868    9.823272    ( 0.0000,  0.0000,  0.0000)

Unit cell:
           periodic     x           y           z      points  spacing
  1. axis:    no    16.000000    0.000000    0.000000    64     0.2500
  2. axis:    no     0.000000   16.000000    0.000000    64     0.2500
  3. axis:    no     0.000000    0.000000   16.000000    64     0.2500

  Lengths:  16.000000  16.000000  16.000000
  Angles:   90.000000  90.000000  90.000000

Effective grid spacing dv^(1/3) = 0.2500

                     log10-error:    total        iterations:
           time      wfs    density  energy       fermi  poisson
iter:   1  22:01:44          +inf    -4.375559    0      1      
iter:   2  22:01:47         -3.56    -4.375558    0      1      
iter:   3  22:01:49         -3.72    -4.375558    0      1      
iter:   4  22:01:51         -4.37    -4.375558    0      1      

Converged after 4 iterations.

Dipole moment: (0.067605, 0.115105, 0.050323) |e|*Ang

Energy contributions relative to reference atoms: (reference = -26511.662975)

Kinetic:        +20.586083
Potential:      -18.070088
External:        +0.000000
XC:              -6.915409
Entropy (-ST):   +0.000000
Local:           +0.023855
--------------------------
Free energy:     -4.375558
Extrapolated:    -4.375558

Fermi level: -2.29988

 Band  Eigenvalues  Occupancy
    0     -4.24878    2.00000
    1     -2.97386    2.00000
    2     -2.96525    2.00000
    3     -1.63451    0.00000
    4     -1.44932    0.00000
    5     -1.44168    0.00000
    6      2.08884    0.00000
    7      2.09188    0.00000

Gap: 1.331 eV
Transition (v -> c):
  (s=0, k=0, n=2, [0.00, 0.00, 0.00]) -> (s=0, k=0, n=3, [0.00, 0.00, 0.00])

Forces in eV/Ang:
  0 Na    0.04651    0.09925    0.03076
  1 Na   -0.05119   -0.03838    0.09127
  2 Na   -0.10059    0.03666   -0.00642
  3 Na   -0.02586    0.03021   -0.10011
  4 Na    0.07582   -0.04672   -0.06857
  5 Na    0.05785   -0.08130    0.05088

System changes: positions 

Initializing position-dependent things.

Density initialized from wave functions
           .--------------------------------------.  
          /|                                      |  
         / |                                      |  
        /  |                                      |  
       /   |                                      |  
      /    |                                      |  
     /     |                                      |  
    /      |                                      |  
   /       |                                      |  
  /        |                                      |  
 *         |                                      |  
 |         |          Na                          |  
 |         |                                      |  
 |         |       Na      NNa                    |  
 |         |                                      |  
 |         |                                      |  
 |         |                                      |  
 |         |             Na   Na                  |  
 |         |                                      |  
 |         |                                      |  
 |         .--------------------------------------.  
 |        /                                      /   
 |       /                                      /    
 |      /                                      /     
 |     /                                      /      
 |    /                                      /       
 |   /                                      /        
 |  /                                      /         
 | /                                      /          
 |/                                      /           
 *--------------------------------------*            

Positions:
   0 Na     8.227253    9.526256    8.667774    ( 0.0000,  0.0000,  0.0000)
   1 Na     6.399194    8.087799   11.001860    ( 0.0000,  0.0000,  0.0000)
   2 Na     4.973053    9.960692    8.319045    ( 0.0000,  0.0000,  0.0000)
   3 Na     7.202029    9.801578    5.540723    ( 0.0000,  0.0000,  0.0000)
   4 Na    10.020304    7.831508    6.480258    ( 0.0000,  0.0000,  0.0000)
   5 Na     9.498435    6.724302    9.841148    ( 0.0000,  0.0000,  0.0000)

Unit cell:
           periodic     x           y           z      points  spacing
  1. axis:    no    16.000000    0.000000    0.000000    64     0.2500
  2. axis:    no     0.000000   16.000000    0.000000    64     0.2500
  3. axis:    no     0.000000    0.000000   16.000000    64     0.2500

  Lengths:  16.000000  16.000000  16.000000
  Angles:   90.000000  90.000000  90.000000

Effective grid spacing dv^(1/3) = 0.2500

                     log10-error:    total        iterations:
           time      wfs    density  energy       fermi  poisson
iter:   1  22:01:53          +inf    -4.394951    0      1      
iter:   2  22:01:55         -2.15    -4.394770    0      1      
iter:   3  22:01:57         -2.32    -4.394595    0      1      
iter:   4  22:01:59         -2.95    -4.394587    0      1      
iter:   5  22:02:02         -3.40    -4.394586    0      1      
iter:   6  22:02:04         -3.69    -4.394586    0      1      
iter:   7  22:02:06         -4.18    -4.394586    0      1      

Converged after 7 iterations.

Dipole moment: (0.071783, 0.124721, 0.053220) |e|*Ang

Energy contributions relative to reference atoms: (reference = -26511.662975)

Kinetic:        +18.910378
Potential:      -16.742079
External:        +0.000000
XC:              -6.585455
Entropy (-ST):   +0.000000
Local:           +0.022569
--------------------------
Free energy:     -4.394586
Extrapolated:    -4.394586

Fermi level: -2.30776

 Band  Eigenvalues  Occupancy
    0     -4.21778    2.00000
    1     -2.96615    2.00000
    2     -2.95906    2.00000
    3     -1.65646    0.00000
    4     -1.46985    0.00000
    5     -1.46264    0.00000
    6      2.17464    0.00000
    7      2.17481    0.00000

Gap: 1.303 eV
Transition (v -> c):
  (s=0, k=0, n=2, [0.00, 0.00, 0.00]) -> (s=0, k=0, n=3, [0.00, 0.00, 0.00])

Forces in eV/Ang:
  0 Na    0.02059    0.04215    0.01376
  1 Na   -0.02357   -0.02027    0.04386
  2 Na   -0.04977    0.02024   -0.00258
  3 Na   -0.01176    0.01655   -0.05021
  4 Na    0.03686   -0.02449   -0.03168
  5 Na    0.02933   -0.03682    0.02567

System changes: positions 

Initializing position-dependent things.

Density initialized from wave functions
           .--------------------------------------.  
          /|                                      |  
         / |                                      |  
        /  |                                      |  
       /   |                                      |  
      /    |                                      |  
     /     |                                      |  
    /      |                                      |  
   /       |                                      |  
  /        |                                      |  
 *         |                                      |  
 |         |          Na                          |  
 |         |                                      |  
 |         |       Na      NNa                    |  
 |         |                                      |  
 |         |                                      |  
 |         |                                      |  
 |         |             Na   Na                  |  
 |         |                                      |  
 |         |                                      |  
 |         .--------------------------------------.  
 |        /                                      /   
 |       /                                      /    
 |      /                                      /     
 |     /                                      /      
 |    /                                      /       
 |   /                                      /        
 |  /                                      /         
 | /                                      /          
 |/                                      /           
 *--------------------------------------*            

Positions:
   0 Na     8.242208    9.558116    8.677669    ( 0.0000,  0.0000,  0.0000)
   1 Na     6.382710    8.075368   11.031299    ( 0.0000,  0.0000,  0.0000)
   2 Na     4.940570    9.972587    8.316988    ( 0.0000,  0.0000,  0.0000)
   3 Na     7.193708    9.811378    5.508376    ( 0.0000,  0.0000,  0.0000)
   4 Na    10.044773    7.816383    6.458176    ( 0.0000,  0.0000,  0.0000)
   5 Na     9.517137    6.698141    9.857591    ( 0.0000,  0.0000,  0.0000)

Unit cell:
           periodic     x           y           z      points  spacing
  1. axis:    no    16.000000    0.000000    0.000000    64     0.2500
  2. axis:    no     0.000000   16.000000    0.000000    64     0.2500
  3. axis:    no     0.000000    0.000000   16.000000    64     0.2500

  Lengths:  16.000000  16.000000  16.000000
  Angles:   90.000000  90.000000  90.000000

Effective grid spacing dv^(1/3) = 0.2500

                     log10-error:    total        iterations:
           time      wfs    density  energy       fermi  poisson
iter:   1  22:02:08          +inf    -4.400997    0      1      
iter:   2  22:02:10         -2.18    -4.400846    0      1      
iter:   3  22:02:12         -2.35    -4.400700    0      1      
iter:   4  22:02:14         -2.99    -4.400694    0      1      
iter:   5  22:02:17         -3.42    -4.400693    0      1      
iter:   6  22:02:19         -3.72    -4.400693    0      1      
iter:   7  22:02:21         -4.19    -4.400693    0      1      

Converged after 7 iterations.

Dipole moment: (0.075653, 0.133849, 0.055844) |e|*Ang

Energy contributions relative to reference atoms: (reference = -26511.662975)

Kinetic:        +17.445922
Potential:      -15.576938
External:        +0.000000
XC:              -6.290918
Entropy (-ST):   +0.000000
Local:           +0.021240
--------------------------
Free energy:     -4.400693
Extrapolated:    -4.400693

Fermi level: -2.31551

 Band  Eigenvalues  Occupancy
    0     -4.19015    2.00000
    1     -2.95938    2.00000
    2     -2.95376    2.00000
    3     -1.67726    0.00000
    4     -1.48901    0.00000
    5     -1.48229    0.00000
    6      2.25912    0.00000
    7      2.26222    0.00000

Gap: 1.276 eV
Transition (v -> c):
  (s=0, k=0, n=2, [0.00, 0.00, 0.00]) -> (s=0, k=0, n=3, [0.00, 0.00, 0.00])

Forces in eV/Ang:
  0 Na   -0.00229   -0.00663   -0.00176
  1 Na   -0.00103   -0.00478    0.00525
  2 Na   -0.00689    0.00666    0.00073
  3 Na    0.00006    0.00567   -0.00855
  4 Na    0.00481   -0.00481   -0.00085
  5 Na    0.00569    0.00037    0.00497

Timing:                                       incl.     excl.
--------------------------------------------------------------------
Basic WFS set positions:                      0.003     0.002   0.0% |
 Redistribute:                                0.001     0.001   0.0% |
Basis functions set positions:                0.121     0.121   0.2% |
Forces:                                       1.732     0.363   0.6% |
 LCAO forces:                                 1.369     0.002   0.0% |
  Atomic Hamiltonian force:                   0.006     0.006   0.0% |
  Initial:                                    0.000     0.000   0.0% |
   Get density matrix:                        0.000     0.000   0.0% |
  Paw correction:                             0.005     0.005   0.0% |
  Potential:                                  1.248     1.248   2.0% ||
  TCI derivative:                             0.107     0.107   0.2% |
  Wait for sum:                               0.000     0.000   0.0% |
LCAO WFS Initialize:                          7.882     0.108   0.2% |
 Density initialized from wave functions:     0.451     0.248   0.4% |
  Calculate density matrix:                   0.000     0.000   0.0% |
  Construct density:                          0.202     0.202   0.3% |
  Symmetrize density:                         0.000     0.000   0.0% |
 Hamiltonian:                                 7.324     0.001   0.0% |
  Atomic:                                     1.079     0.005   0.0% |
   XC Correction:                             1.074     1.074   1.7% ||
  Calculate atomic Hamiltonians:              0.028     0.028   0.0% |
  Communicate:                                0.000     0.000   0.0% |
  Hartree integrate/restrict:                 0.191     0.191   0.3% |
  Initialize Hamiltonian:                     0.000     0.000   0.0% |
  Poisson:                                    1.057     0.065   0.1% |
   Communicate bwd 0:                         0.120     0.120   0.2% |
   Communicate bwd 1:                         0.079     0.079   0.1% |
   Communicate fwd 0:                         0.122     0.122   0.2% |
   Communicate fwd 1:                         0.125     0.125   0.2% |
   fft:                                       0.165     0.165   0.3% |
   fft2:                                      0.381     0.381   0.6% |
  XC 3D grid:                                 4.938     4.938   7.8% |--|
  vbar:                                       0.030     0.030   0.0% |
P tci:                                        0.049     0.049   0.1% |
Redistribute:                                 0.001     0.001   0.0% |
SCF-cycle:                                   49.777     0.069   0.1% |
 Density:                                     3.867     0.001   0.0% |
  Atomic density matrices:                    0.030     0.030   0.0% |
  Mix:                                        2.132     2.132   3.3% ||
  Multipole moments:                          0.006     0.006   0.0% |
  Normalize:                                  0.010     0.010   0.0% |
  Pseudo density:                             1.688     0.037   0.1% |
   Calculate density matrix:                  0.002     0.002   0.0% |
   Construct density:                         1.648     1.648   2.6% ||
   Symmetrize density:                        0.001     0.001   0.0% |
 Hamiltonian:                                44.081     0.004   0.0% |
  Atomic:                                     6.479     0.029   0.0% |
   XC Correction:                             6.450     6.450  10.1% |---|
  Calculate atomic Hamiltonians:              0.172     0.172   0.3% |
  Communicate:                                0.000     0.000   0.0% |
  Hartree integrate/restrict:                 1.172     1.172   1.8% ||
  Poisson:                                    6.410     0.381   0.6% |
   Communicate bwd 0:                         0.768     0.768   1.2% |
   Communicate bwd 1:                         0.474     0.474   0.7% |
   Communicate fwd 0:                         0.722     0.722   1.1% |
   Communicate fwd 1:                         0.770     0.770   1.2% |
   fft:                                       0.979     0.979   1.5% ||
   fft2:                                      2.316     2.316   3.6% ||
  XC 3D grid:                                29.694    29.694  46.6% |------------------|
  vbar:                                       0.149     0.149   0.2% |
 LCAO eigensolver:                            1.760     0.004   0.0% |
  Calculate projections:                      0.002     0.002   0.0% |
  DenseAtomicCorrection:                      0.010     0.010   0.0% |
  Distribute overlap matrix:                  0.001     0.001   0.0% |
  Orbital Layouts:                            0.009     0.009   0.0% |
  Potential matrix:                           1.735     1.735   2.7% ||
ST tci:                                       0.016     0.016   0.0% |
Set symmetry:                                 0.001     0.001   0.0% |
TCI: Evaluate splines:                        0.021     0.021   0.0% |
mktci:                                        0.006     0.006   0.0% |
Other:                                        4.050     4.050   6.4% |--|
--------------------------------------------------------------------
Total:                                                 63.658 100.0%

Memory usage: 577.82 MiB
Date: Mon Feb 17 22:02:22 2020
