
  ___ ___ ___ _ _ _  
 |   |   |_  | | | | 
 | | | | | . | | | | 
 |__ |  _|___|_____|  19.8.1
 |___|_|             

User:   hallborn@hebbe07-8
Date:   Tue Feb 18 02:16:10 2020
Arch:   x86_64
Pid:    28808
Python: 3.7.2
gpaw:   /apps/Hebbe7/software/MPI/intel/2019.1.144-GCC-8.2.0-2.31.1/impi/2018.4.274/GPAW/19.8.1-Python-3.7.2/lib/python3.7/site-packages/gpaw
_gpaw:  /apps/Hebbe7/software/MPI/intel/2019.1.144-GCC-8.2.0-2.31.1/impi/2018.4.274/GPAW/19.8.1-Python-3.7.2/bin/
        gpaw-python
ase:    /apps/Hebbe7/software/MPI/intel/2019.1.144-GCC-8.2.0-2.31.1/impi/2018.4.274/ASE/3.18.0-Python-3.7.2/lib/python3.7/site-packages/ase (version 3.18.0)
numpy:  /apps/Hebbe7/software/MPI/intel/2019.1.144-GCC-8.2.0-2.31.1/impi/2018.4.274/SciPy-bundle/2019.03/lib/python3.7/site-packages/numpy (version 1.16.2)
scipy:  /apps/Hebbe7/software/MPI/intel/2019.1.144-GCC-8.2.0-2.31.1/impi/2018.4.274/SciPy-bundle/2019.03/lib/python3.7/site-packages/scipy (version 1.2.1)
libxc:  4.3.4
units:  Angstrom and eV
cores:  1

Input parameters:
  basis: dzp
  h: 0.25
  mode: {ecut: 200.0,
         gammacentered: False,
         name: pw}
  occupations: {name: fermi-dirac,
                width: 0.05}
  setups: {Na: 1}
  xc: PBE

System changes: positions, numbers, cell, pbc, initial_charges, initial_magmoms 

Initialize ...

Na-setup:
  name: Sodium
  id: 8dbce52902f3add137ce7d12431c9cac
  Z: 11
  valence: 1
  core: 10
  charge: 0.0
  file: /apps/Common/Core/GPAW-setups/0.9.20000/Na.1.PBE.gz
  compensation charges: gauss, rc=0.43, lmax=2
  cutoffs: 2.36(filt), 3.60(core),
  valence states:
                energy  radius
    3s(1.00)    -2.744   1.349
    3p(0.00)    -0.743   1.349
    *s          24.468   1.349

  LCAO basis set for Na:
    Name: 1.dzp
    File: /apps/Common/Core/GPAW-setups/0.9.20000/Na.1.dzp.basis.gz
    Number of radial functions: 3
    Number of spherical harmonics: 5
      l=0, rc=11.7656 Bohr: 3s-sz confined orbital
      l=0, rc=7.1094 Bohr: 3s-dz split-valence wave
      l=1, rc=11.7656 Bohr: p-type Gaussian polarization

Reference energy: -26511.662975

Spin-paired calculation

Occupation numbers:
  Fermi-Dirac: width=0.0500 eV

Convergence criteria:
  Maximum total energy change: 0.0005 eV / electron
  Maximum integral of absolute density change: 0.0001 electrons
  Maximum integral of absolute eigenstate change: 4e-08 eV^2
  Maximum number of iterations: 333

Symmetries present (total): 1

  ( 1  0  0)
  ( 0  1  0)
  ( 0  0  1)

1 k-point (Gamma)
1 k-point in the irreducible part of the Brillouin zone
       k-points in crystal coordinates                weights
   0:     0.00000000    0.00000000    0.00000000          1/1

Wave functions: Plane wave expansion
  Cutoff energy: 200.000 eV
  Number of coefficients: 26193 (reduced to 13097)
  Pulay-stress correction: 0.000000 eV/Ang^3 (de/decut=0.000000)
  Using FFTW library
  ScaLapack parameters: grid=1x1, blocksize=None
  Wavefunction extrapolation:
    Improved wavefunction reuse through dual PAW basis 

Eigensolver
   Davidson(niter=2, smin=None, normalize=True) 

Densities:
  Coarse grid: 64*64*64 grid
  Fine grid: 128*128*128 grid
  Total Charge: 0.000000 

Density mixing:
  Method: separate
  Backend: pulay
  Linear mixing parameter: 0.05
  Mixing with 5 old densities
  Damping of long wave oscillations: 50 

Hamiltonian:
  XC and Coulomb potentials evaluated on a 128*128*128 grid
  Using the PBE Exchange-Correlation functional
 

XC parameters: PBE with 2 nearest neighbor stencil

Memory estimate:
  Process memory now: 525.32 MiB
  Calculator: 168.55 MiB
    Density: 123.30 MiB
      Arrays: 52.00 MiB
      Localized functions: 51.30 MiB
      Mixer: 20.00 MiB
    Hamiltonian: 35.05 MiB
      Arrays: 34.00 MiB
      XC: 0.00 MiB
      Poisson: 0.00 MiB
      vbar: 1.05 MiB
    Wavefunctions: 10.20 MiB
      Arrays psit_nG: 1.60 MiB
      Eigensolver: 2.60 MiB
      Projections: 0.00 MiB
      Projectors: 0.70 MiB
      PW-descriptor: 5.29 MiB

Total number of cores used: 1

Number of atoms: 6
Number of atomic orbitals: 30
Number of bands in calculation: 8
Bands to converge: occupied states only
Number of valence electrons: 6

... initialized

Initializing position-dependent things.

Density initialized from atomic densities
Creating initial wave functions:
  8 bands from LCAO basis set

           .--------------------------------------.  
          /|                                      |  
         / |                                      |  
        /  |                                      |  
       /   |                                      |  
      /    |                                      |  
     /     |                                      |  
    /      |                                      |  
   /       |                                      |  
  /        |                                      |  
 *         |                                      |  
 |         |          Na                          |  
 |         |                                      |  
 |         |       Na      Na                     |  
 |         |                Na                    |  
 |         |                                      |  
 |         |                                      |  
 |         |             Na   Na                  |  
 |         |                                      |  
 |         |                                      |  
 |         .--------------------------------------.  
 |        /                                      /   
 |       /                                      /    
 |      /                                      /     
 |     /                                      /      
 |    /                                      /       
 |   /                                      /        
 |  /                                      /         
 | /                                      /          
 |/                                      /           
 *--------------------------------------*            

Positions:
   0 Na     8.210231    9.489933    8.656516    ( 0.0000,  0.0000,  0.0000)
   1 Na     6.417931    8.101846   10.968460    ( 0.0000,  0.0000,  0.0000)
   2 Na     5.009862    9.947279    8.321395    ( 0.0000,  0.0000,  0.0000)
   3 Na     7.211492    9.790525    5.577356    ( 0.0000,  0.0000,  0.0000)
   4 Na     9.992557    7.848605    6.505352    ( 0.0000,  0.0000,  0.0000)
   5 Na     9.477264    6.754058    9.822530    ( 0.0000,  0.0000,  0.0000)

Unit cell:
           periodic     x           y           z      points  spacing
  1. axis:    no    16.000000    0.000000    0.000000    64     0.2500
  2. axis:    no     0.000000   16.000000    0.000000    64     0.2500
  3. axis:    no     0.000000    0.000000   16.000000    64     0.2500

  Lengths:  16.000000  16.000000  16.000000
  Angles:   90.000000  90.000000  90.000000

Effective grid spacing dv^(1/3) = 0.2500

                     log10-error:    total        iterations:
           time      wfs    density  energy       fermi  poisson
iter:   1  02:16:15  +0.22   +inf    -5.212125    2             
iter:   2  02:16:17  -1.65  -0.45    -5.138874    3             
iter:   3  02:16:19  -1.74  -0.48    -4.881901    30            
iter:   4  02:16:21  -2.60  -0.96    -4.856531    4             
iter:   5  02:16:24  -3.22  -0.95    -4.858460    2             
iter:   6  02:16:26  -3.19  -1.08    -4.862531    4             
iter:   7  02:16:28  -3.77  -1.49    -4.862185    2             
iter:   8  02:16:30  -4.32  -1.98    -4.862280    2             
iter:   9  02:16:33  -4.93  -2.06    -4.862264    2             
iter:  10  02:16:35  -5.02  -2.11    -4.862316    2             
iter:  11  02:16:37  -5.75  -2.65    -4.862299    2             
iter:  12  02:16:39  -6.91  -3.00    -4.862300    1             
iter:  13  02:16:41  -7.06  -3.07    -4.862301    1             
iter:  14  02:16:44  -8.09  -3.21    -4.862301    1             
iter:  15  02:16:46  -7.73  -3.21    -4.862301    1             
iter:  16  02:16:48  -7.93  -3.16    -4.862301    1             
iter:  17  02:16:50  -8.23  -3.23    -4.862301    1             
iter:  18  02:16:53  -8.58  -3.25    -4.862302    1             
iter:  19  02:16:55  -8.37  -3.28    -4.862301    1             
iter:  20  02:16:57  -8.01  -3.29    -4.862302    1             
iter:  21  02:16:59  -8.61  -3.38    -4.862302    1             
iter:  22  02:17:01  -7.29  -3.41    -4.862302    1             
iter:  23  02:17:04  -8.39  -3.91    -4.862302    1             
iter:  24  02:17:06  -8.98  -3.99    -4.862302    1             
iter:  25  02:17:08  -9.68  -4.02    -4.862302    1             

Converged after 25 iterations.

Dipole moment: (-0.071519, -0.113067, -0.048705) |e|*Ang

Energy contributions relative to reference atoms: (reference = -26511.662975)

Kinetic:        +11.806998
Potential:      -10.598977
External:        +0.000000
XC:              -6.069893
Entropy (-ST):   -0.000037
Local:           -0.000412
--------------------------
Free energy:     -4.862320
Extrapolated:    -4.862302

Fermi level: -2.24080

 Band  Eigenvalues  Occupancy
    0     -4.00179    2.00000
    1     -2.83676    1.99999
    2     -2.82887    1.99998
    3     -1.67908    0.00003
    4     -1.53143    0.00000
    5     -1.52086    0.00000
    6     -1.25661    0.00000
    7     -0.67313    0.00000

Gap: 1.150 eV
Transition (v -> c):
  (s=0, k=0, n=2, [0.00, 0.00, 0.00]) -> (s=0, k=0, n=3, [0.00, 0.00, 0.00])

Forces in eV/Ang:
  0 Na    0.05694    0.11695    0.03789
  1 Na   -0.05000   -0.03934    0.07805
  2 Na   -0.09216    0.02623   -0.00703
  3 Na   -0.02679    0.02243   -0.08951
  4 Na    0.06464   -0.04732   -0.06297
  5 Na    0.04727   -0.07917    0.04349

System changes: positions 

Initializing position-dependent things.

Density initialized from wave functions
           .--------------------------------------.  
          /|                                      |  
         / |                                      |  
        /  |                                      |  
       /   |                                      |  
      /    |                                      |  
     /     |                                      |  
    /      |                                      |  
   /       |                                      |  
  /        |                                      |  
 *         |                                      |  
 |         |          Na                          |  
 |         |                                      |  
 |         |       Na      Na                     |  
 |         |                Na                    |  
 |         |                                      |  
 |         |                                      |  
 |         |             Na   Na                  |  
 |         |                                      |  
 |         |                                      |  
 |         .--------------------------------------.  
 |        /                                      /   
 |       /                                      /    
 |      /                                      /     
 |     /                                      /      
 |    /                                      /       
 |   /                                      /        
 |  /                                      /         
 | /                                      /          
 |/                                      /           
 *--------------------------------------*            

Positions:
   0 Na     8.211044    9.491603    8.657057    ( 0.0000,  0.0000,  0.0000)
   1 Na     6.417216    8.101284   10.969575    ( 0.0000,  0.0000,  0.0000)
   2 Na     5.008546    9.947654    8.321294    ( 0.0000,  0.0000,  0.0000)
   3 Na     7.211110    9.790846    5.576077    ( 0.0000,  0.0000,  0.0000)
   4 Na     9.993481    7.847929    6.504452    ( 0.0000,  0.0000,  0.0000)
   5 Na     9.477939    6.752927    9.823152    ( 0.0000,  0.0000,  0.0000)

Unit cell:
           periodic     x           y           z      points  spacing
  1. axis:    no    16.000000    0.000000    0.000000    64     0.2500
  2. axis:    no     0.000000   16.000000    0.000000    64     0.2500
  3. axis:    no     0.000000    0.000000   16.000000    64     0.2500

  Lengths:  16.000000  16.000000  16.000000
  Angles:   90.000000  90.000000  90.000000

Effective grid spacing dv^(1/3) = 0.2500

                     log10-error:    total        iterations:
           time      wfs    density  energy       fermi  poisson
iter:   1  02:17:12  -4.93   +inf    -4.863265    2             
iter:   2  02:17:14  -6.05  -2.87    -4.863264    1             
iter:   3  02:17:17  -5.93  -2.89    -4.863261    2             
iter:   4  02:17:19  -7.20  -3.14    -4.863259    1             
iter:   5  02:17:21  -7.75  -3.43    -4.863259    1             
iter:   6  02:17:23  -7.57  -3.57    -4.863259    1             
iter:   7  02:17:25  -8.60  -3.58    -4.863259    1             
iter:   8  02:17:28  -8.30  -3.67    -4.863258    1             
iter:   9  02:17:30  -8.85  -3.96    -4.863259    1             
iter:  10  02:17:32  -8.28  -4.03    -4.863258    1             

Converged after 10 iterations.

Dipole moment: (-0.071580, -0.113097, -0.048759) |e|*Ang

Energy contributions relative to reference atoms: (reference = -26511.662975)

Kinetic:        +11.747572
Potential:      -10.552758
External:        +0.000000
XC:              -6.057808
Entropy (-ST):   -0.000037
Local:           -0.000246
--------------------------
Free energy:     -4.863277
Extrapolated:    -4.863258

Fermi level: -2.24080

 Band  Eigenvalues  Occupancy
    0     -4.00039    2.00000
    1     -2.83635    1.99999
    2     -2.82851    1.99998
    3     -1.67944    0.00003
    4     -1.53188    0.00000
    5     -1.52132    0.00000
    6     -1.25608    0.00000
    7     -0.67351    0.00000

Gap: 1.149 eV
Transition (v -> c):
  (s=0, k=0, n=2, [0.00, 0.00, 0.00]) -> (s=0, k=0, n=3, [0.00, 0.00, 0.00])

Forces in eV/Ang:
  0 Na    0.05590    0.11473    0.03717
  1 Na   -0.04887   -0.03853    0.07632
  2 Na   -0.09014    0.02576   -0.00688
  3 Na   -0.02617    0.02207   -0.08750
  4 Na    0.06322   -0.04631   -0.06153
  5 Na    0.04624   -0.07739    0.04255

System changes: positions 

Initializing position-dependent things.

Density initialized from wave functions
           .--------------------------------------.  
          /|                                      |  
         / |                                      |  
        /  |                                      |  
       /   |                                      |  
      /    |                                      |  
     /     |                                      |  
    /      |                                      |  
   /       |                                      |  
  /        |                                      |  
 *         |                                      |  
 |         |          Na                          |  
 |         |                                      |  
 |         |       Na      NNa                    |  
 |         |                                      |  
 |         |                                      |  
 |         |                                      |  
 |         |             Na   Na                  |  
 |         |                                      |  
 |         |                                      |  
 |         .--------------------------------------.  
 |        /                                      /   
 |       /                                      /    
 |      /                                      /     
 |     /                                      /      
 |    /                                      /       
 |   /                                      /        
 |  /                                      /         
 | /                                      /          
 |/                                      /           
 *--------------------------------------*            

Positions:
   0 Na     8.227866    9.526128    8.668241    ( 0.0000,  0.0000,  0.0000)
   1 Na     6.402512    8.089688   10.992541    ( 0.0000,  0.0000,  0.0000)
   2 Na     4.981421    9.955405    8.319225    ( 0.0000,  0.0000,  0.0000)
   3 Na     7.203235    9.797487    5.549747    ( 0.0000,  0.0000,  0.0000)
   4 Na    10.012503    7.833995    6.485936    ( 0.0000,  0.0000,  0.0000)
   5 Na     9.491852    6.729640    9.835954    ( 0.0000,  0.0000,  0.0000)

Unit cell:
           periodic     x           y           z      points  spacing
  1. axis:    no    16.000000    0.000000    0.000000    64     0.2500
  2. axis:    no     0.000000   16.000000    0.000000    64     0.2500
  3. axis:    no     0.000000    0.000000   16.000000    64     0.2500

  Lengths:  16.000000  16.000000  16.000000
  Angles:   90.000000  90.000000  90.000000

Effective grid spacing dv^(1/3) = 0.2500

                     log10-error:    total        iterations:
           time      wfs    density  energy       fermi  poisson
iter:   1  02:17:36  -2.29   +inf    -4.881802    3             
iter:   2  02:17:38  -3.40  -1.53    -4.881224    2             
iter:   3  02:17:41  -3.24  -1.56    -4.879859    3             
iter:   4  02:17:43  -4.46  -1.76    -4.878591    2             
iter:   5  02:17:45  -5.08  -2.09    -4.878503    2             
iter:   6  02:17:47  -5.05  -2.22    -4.878558    1             
iter:   7  02:17:50  -5.79  -2.28    -4.878494    2             
iter:   8  02:17:52  -5.27  -2.42    -4.878459    2             
iter:   9  02:17:54  -5.98  -2.98    -4.878467    2             
iter:  10  02:17:56  -6.27  -2.79    -4.878460    2             
iter:  11  02:17:58  -6.73  -3.23    -4.878460    1             
iter:  12  02:18:01  -7.65  -3.42    -4.878460    1             
iter:  13  02:18:03  -7.41  -3.46    -4.878461    1             
iter:  14  02:18:05  -8.28  -4.01    -4.878461    1             

Converged after 14 iterations.

Dipole moment: (-0.071237, -0.110567, -0.048641) |e|*Ang

Energy contributions relative to reference atoms: (reference = -26511.662975)

Kinetic:        +10.513837
Potential:       -9.584085
External:        +0.000000
XC:              -5.807706
Entropy (-ST):   -0.000043
Local:           -0.000485
--------------------------
Free energy:     -4.878482
Extrapolated:    -4.878461

Fermi level: -2.24055

 Band  Eigenvalues  Occupancy
    0     -3.97145    2.00000
    1     -2.82777    1.99998
    2     -2.82097    1.99998
    3     -1.68682    0.00003
    4     -1.54110    0.00000
    5     -1.53066    0.00000
    6     -1.24497    0.00000
    7     -0.68172    0.00000

Gap: 1.134 eV
Transition (v -> c):
  (s=0, k=0, n=2, [0.00, 0.00, 0.00]) -> (s=0, k=0, n=3, [0.00, 0.00, 0.00])

Forces in eV/Ang:
  0 Na    0.03479    0.06822    0.02311
  1 Na   -0.02655   -0.02400    0.04007
  2 Na   -0.05057    0.01369   -0.00380
  3 Na   -0.01497    0.01187   -0.04885
  4 Na    0.03342   -0.02805   -0.03296
  5 Na    0.02385   -0.04177    0.02238

System changes: positions 

Initializing position-dependent things.

Density initialized from wave functions
           .--------------------------------------.  
          /|                                      |  
         / |                                      |  
        /  |                                      |  
       /   |                                      |  
      /    |                                      |  
     /     |                                      |  
    /      |                                      |  
   /       |                                      |  
  /        |                                      |  
 *         |                                      |  
 |         |          Na                          |  
 |         |                                      |  
 |         |       Na      NNa                    |  
 |         |                                      |  
 |         |                                      |  
 |         |                                      |  
 |         |             Na   Na                  |  
 |         |                                      |  
 |         |                                      |  
 |         .--------------------------------------.  
 |        /                                      /   
 |       /                                      /    
 |      /                                      /     
 |     /                                      /      
 |    /                                      /       
 |   /                                      /        
 |  /                                      /         
 | /                                      /          
 |/                                      /           
 *--------------------------------------*            

Positions:
   0 Na     8.244718    9.560632    8.679443    ( 0.0000,  0.0000,  0.0000)
   1 Na     6.387879    8.078073   11.015360    ( 0.0000,  0.0000,  0.0000)
   2 Na     4.954389    9.963111    8.317165    ( 0.0000,  0.0000,  0.0000)
   3 Na     7.195381    9.804093    5.523512    ( 0.0000,  0.0000,  0.0000)
   4 Na    10.031409    7.820056    6.467523    ( 0.0000,  0.0000,  0.0000)
   5 Na     9.505665    6.706474    9.848675    ( 0.0000,  0.0000,  0.0000)

Unit cell:
           periodic     x           y           z      points  spacing
  1. axis:    no    16.000000    0.000000    0.000000    64     0.2500
  2. axis:    no     0.000000   16.000000    0.000000    64     0.2500
  3. axis:    no     0.000000    0.000000   16.000000    64     0.2500

  Lengths:  16.000000  16.000000  16.000000
  Angles:   90.000000  90.000000  90.000000

Effective grid spacing dv^(1/3) = 0.2500

                     log10-error:    total        iterations:
           time      wfs    density  energy       fermi  poisson
iter:   1  02:18:09  -2.31   +inf    -4.888642    3             
iter:   2  02:18:11  -3.40  -1.54    -4.888090    2             
iter:   3  02:18:14  -3.27  -1.57    -4.886685    3             
iter:   4  02:18:16  -4.51  -1.78    -4.885570    2             
iter:   5  02:18:18  -5.07  -2.09    -4.885475    2             
iter:   6  02:18:20  -5.04  -2.23    -4.885534    1             
iter:   7  02:18:22  -5.82  -2.29    -4.885473    2             
iter:   8  02:18:25  -5.30  -2.42    -4.885438    2             
iter:   9  02:18:27  -6.04  -3.00    -4.885446    2             
iter:  10  02:18:29  -6.29  -2.80    -4.885439    2             
iter:  11  02:18:31  -6.76  -3.25    -4.885439    1             
iter:  12  02:18:33  -7.68  -3.43    -4.885439    1             
iter:  13  02:18:36  -7.50  -3.47    -4.885439    1             
iter:  14  02:18:38  -8.37  -4.01    -4.885439    1             

Converged after 14 iterations.

Dipole moment: (-0.070698, -0.107568, -0.048420) |e|*Ang

Energy contributions relative to reference atoms: (reference = -26511.662975)

Kinetic:         +9.344973
Potential:       -8.664955
External:        +0.000000
XC:              -5.565334
Entropy (-ST):   -0.000050
Local:           -0.000099
--------------------------
Free energy:     -4.885464
Extrapolated:    -4.885439

Fermi level: -2.24090

 Band  Eigenvalues  Occupancy
    0     -3.94321    2.00000
    1     -2.81938    1.99998
    2     -2.81363    1.99998
    3     -1.69527    0.00004
    4     -1.55039    0.00000
    5     -1.54003    0.00000
    6     -1.23404    0.00000
    7     -0.69002    0.00000

Gap: 1.118 eV
Transition (v -> c):
  (s=0, k=0, n=2, [0.00, 0.00, 0.00]) -> (s=0, k=0, n=3, [0.00, 0.00, 0.00])

Forces in eV/Ang:
  0 Na    0.01410    0.02431    0.00922
  1 Na   -0.00603   -0.01023    0.00722
  2 Na   -0.01394    0.00307   -0.00089
  3 Na   -0.00452    0.00297   -0.01311
  4 Na    0.00652   -0.01087   -0.00681
  5 Na    0.00380   -0.00908    0.00429

System changes: positions 

Initializing position-dependent things.

Density initialized from wave functions
           .--------------------------------------.  
          /|                                      |  
         / |                                      |  
        /  |                                      |  
       /   |                                      |  
      /    |                                      |  
     /     |                                      |  
    /      |                                      |  
   /       |                                      |  
  /        |                                      |  
 *         |                                      |  
 |         |          Na                          |  
 |         |                                      |  
 |         |       Na      NNa                    |  
 |         |                                      |  
 |         |                                      |  
 |         |                                      |  
 |         |             Na   Na                  |  
 |         |                                      |  
 |         |                                      |  
 |         .--------------------------------------.  
 |        /                                      /   
 |       /                                      /    
 |      /                                      /     
 |     /                                      /      
 |    /                                      /       
 |   /                                      /        
 |  /                                      /         
 | /                                      /          
 |/                                      /           
 *--------------------------------------*            

Positions:
   0 Na     8.251374    9.574188    8.683865    ( 0.0000,  0.0000,  0.0000)
   1 Na     6.382202    8.073474   11.024178    ( 0.0000,  0.0000,  0.0000)
   2 Na     4.943854    9.966100    8.316365    ( 0.0000,  0.0000,  0.0000)
   3 Na     7.192312    9.806662    5.513295    ( 0.0000,  0.0000,  0.0000)
   4 Na    10.038724    7.814561    6.460392    ( 0.0000,  0.0000,  0.0000)
   5 Na     9.510993    6.697493    9.853595    ( 0.0000,  0.0000,  0.0000)

Unit cell:
           periodic     x           y           z      points  spacing
  1. axis:    no    16.000000    0.000000    0.000000    64     0.2500
  2. axis:    no     0.000000   16.000000    0.000000    64     0.2500
  3. axis:    no     0.000000    0.000000   16.000000    64     0.2500

  Lengths:  16.000000  16.000000  16.000000
  Angles:   90.000000  90.000000  90.000000

Effective grid spacing dv^(1/3) = 0.2500

                     log10-error:    total        iterations:
           time      wfs    density  energy       fermi  poisson
iter:   1  02:18:42  -3.14   +inf    -4.886538    2             
iter:   2  02:18:44  -4.22  -1.95    -4.886458    2             
iter:   3  02:18:46  -4.12  -1.98    -4.886240    2             
iter:   4  02:18:48  -5.38  -2.22    -4.886096    2             
iter:   5  02:18:51  -5.92  -2.50    -4.886081    2             
iter:   6  02:18:53  -5.87  -2.64    -4.886089    1             
iter:   7  02:18:55  -6.72  -2.70    -4.886081    1             
iter:   8  02:18:57  -6.27  -2.81    -4.886075    2             
iter:   9  02:18:59  -7.10  -3.32    -4.886076    1             
iter:  10  02:19:01  -7.05  -3.22    -4.886075    1             
iter:  11  02:19:04  -7.65  -3.72    -4.886075    1             
iter:  12  02:19:06  -8.54  -3.85    -4.886075    1             
iter:  13  02:19:08  -8.42  -3.89    -4.886075    1             
iter:  14  02:19:10  -9.26  -4.18    -4.886075    1             

Converged after 14 iterations.

Dipole moment: (-0.070433, -0.106239, -0.048320) |e|*Ang

Energy contributions relative to reference atoms: (reference = -26511.662975)

Kinetic:         +8.902115
Potential:       -8.316022
External:        +0.000000
XC:              -5.472148
Entropy (-ST):   -0.000053
Local:           +0.000006
--------------------------
Free energy:     -4.886102
Extrapolated:    -4.886075

Fermi level: -2.24126

 Band  Eigenvalues  Occupancy
    0     -3.93245    2.00000
    1     -2.81620    1.99998
    2     -2.81090    1.99998
    3     -1.69892    0.00004
    4     -1.55408    0.00000
    5     -1.54373    0.00000
    6     -1.22988    0.00000
    7     -0.69333    0.00000

Gap: 1.112 eV
Transition (v -> c):
  (s=0, k=0, n=2, [0.00, 0.00, 0.00]) -> (s=0, k=0, n=3, [0.00, 0.00, 0.00])

Forces in eV/Ang:
  0 Na    0.00615    0.00790    0.00384
  1 Na    0.00146   -0.00508   -0.00469
  2 Na   -0.00042   -0.00073    0.00022
  3 Na   -0.00063   -0.00022    0.00005
  4 Na   -0.00323   -0.00447    0.00271
  5 Na   -0.00340    0.00285   -0.00221

Timing:                                      incl.     excl.
-------------------------------------------------------------------
Density initialized from wave functions:     1.112     1.112   0.6% |
 Symmetrize density:                         0.000     0.000   0.0% |
Forces:                                      7.755     7.755   4.3% |-|
Hamiltonian:                                 8.933     0.029   0.0% |
 Atomic:                                     1.339     0.006   0.0% |
  XC Correction:                             1.333     1.333   0.7% |
 Calculate atomic Hamiltonians:              0.861     0.861   0.5% |
 Communicate:                                0.000     0.000   0.0% |
 Initialize Hamiltonian:                     0.000     0.000   0.0% |
 Poisson:                                    0.059     0.059   0.0% |
 XC 3D grid:                                 6.645     6.645   3.7% ||
LCAO initialization:                         0.190     0.021   0.0% |
 LCAO eigensolver:                           0.065     0.000   0.0% |
  Calculate projections:                     0.000     0.000   0.0% |
  DenseAtomicCorrection:                     0.000     0.000   0.0% |
  Distribute overlap matrix:                 0.000     0.000   0.0% |
  Orbital Layouts:                           0.000     0.000   0.0% |
  Potential matrix:                          0.064     0.064   0.0% |
 LCAO to grid:                               0.077     0.077   0.0% |
 Set positions (LCAO WFS):                   0.027     0.004   0.0% |
  Basic WFS set positions:                   0.000     0.000   0.0% |
  Basis functions set positions:             0.000     0.000   0.0% |
  P tci:                                     0.012     0.012   0.0% |
  ST tci:                                    0.004     0.004   0.0% |
  mktci:                                     0.006     0.006   0.0% |
PWDescriptor:                                0.013     0.013   0.0% |
Redistribute:                                0.003     0.003   0.0% |
SCF-cycle:                                 159.915     0.053   0.0% |
 Davidson:                                  12.089     1.533   0.8% |
  Apply H:                                   2.445     2.378   1.3% ||
   HMM T:                                    0.067     0.067   0.0% |
  Subspace diag:                             2.638     0.012   0.0% |
   calc_h_matrix:                            2.528     0.065   0.0% |
    Apply H:                                 2.463     2.391   1.3% ||
     HMM T:                                  0.072     0.072   0.0% |
   diagonalize:                              0.021     0.021   0.0% |
   rotate_psi:                               0.078     0.078   0.0% |
  calc. matrices:                            5.278     0.369   0.2% |
   Apply H:                                  4.909     4.769   2.6% ||
    HMM T:                                   0.139     0.139   0.1% |
  diagonalize:                               0.052     0.052   0.0% |
  rotate_psi:                                0.143     0.143   0.1% |
 Density:                                   18.832     0.002   0.0% |
  Atomic density matrices:                   0.073     0.073   0.0% |
  Mix:                                      17.405    17.405   9.6% |---|
  Multipole moments:                         0.018     0.018   0.0% |
  Pseudo density:                            1.333     1.331   0.7% |
   Symmetrize density:                       0.002     0.002   0.0% |
 Hamiltonian:                              128.915     0.400   0.2% |
  Atomic:                                   19.217     0.083   0.0% |
   XC Correction:                           19.133    19.133  10.5% |---|
  Calculate atomic Hamiltonians:            13.003    13.003   7.2% |--|
  Communicate:                               0.001     0.001   0.0% |
  Poisson:                                   0.849     0.849   0.5% |
  XC 3D grid:                               95.444    95.444  52.5% |--------------------|
 Orthonormalize:                             0.026     0.001   0.0% |
  calc_s_matrix:                             0.004     0.004   0.0% |
  inverse-cholesky:                          0.002     0.002   0.0% |
  projections:                               0.017     0.017   0.0% |
  rotate_psi_s:                              0.003     0.003   0.0% |
Set symmetry:                                0.001     0.001   0.0% |
Other:                                       3.777     3.777   2.1% ||
-------------------------------------------------------------------
Total:                                               181.698 100.0%

Memory usage: 787.01 MiB
Date: Tue Feb 18 02:19:12 2020
