
  ___ ___ ___ _ _ _  
 |   |   |_  | | | | 
 | | | | | . | | | | 
 |__ |  _|___|_____|  19.8.1
 |___|_|             

User:   hallborn@hebbe12-5
Date:   Sat Feb 15 00:32:31 2020
Arch:   x86_64
Pid:    13804
Python: 3.7.2
gpaw:   /apps/Hebbe7/software/MPI/intel/2019.1.144-GCC-8.2.0-2.31.1/impi/2018.4.274/GPAW/19.8.1-Python-3.7.2/lib/python3.7/site-packages/gpaw
_gpaw:  /apps/Hebbe7/software/MPI/intel/2019.1.144-GCC-8.2.0-2.31.1/impi/2018.4.274/GPAW/19.8.1-Python-3.7.2/bin/
        gpaw-python
ase:    /apps/Hebbe7/software/MPI/intel/2019.1.144-GCC-8.2.0-2.31.1/impi/2018.4.274/ASE/3.18.0-Python-3.7.2/lib/python3.7/site-packages/ase (version 3.18.0)
numpy:  /apps/Hebbe7/software/MPI/intel/2019.1.144-GCC-8.2.0-2.31.1/impi/2018.4.274/SciPy-bundle/2019.03/lib/python3.7/site-packages/numpy (version 1.16.2)
scipy:  /apps/Hebbe7/software/MPI/intel/2019.1.144-GCC-8.2.0-2.31.1/impi/2018.4.274/SciPy-bundle/2019.03/lib/python3.7/site-packages/scipy (version 1.2.1)
libxc:  4.3.4
units:  Angstrom and eV
cores:  1

Input parameters:
  mode: {ecut: 350.0,
         gammacentered: False,
         name: pw}
  xc: PBE

System changes: positions, numbers, cell, pbc, initial_charges, initial_magmoms 

Initialize ...

Na-setup:
  name: Sodium
  id: d7ecbc49209718622bcbe287195dca2a
  Z: 11
  valence: 7
  core: 4
  charge: 0.0
  file: /apps/Common/Core/GPAW-setups/0.9.20000/Na.PBE.gz
  compensation charges: gauss, rc=0.37, lmax=2
  cutoffs: 2.17(filt), 2.59(core),
  valence states:
                energy  radius
    3s(1.00)    -2.744   1.201
    2p(6.00)   -28.672   1.217
    3p(0.00)    -0.743   1.217
    *s          24.468   1.201
    *d           0.000   1.238

  Using partial waves for Na as LCAO basis

Reference energy: -26511.662986

Spin-paired calculation

Occupation numbers:
  Fermi-Dirac: width=0.0000 eV

Convergence criteria:
  Maximum total energy change: 0.0005 eV / electron
  Maximum integral of absolute density change: 0.0001 electrons
  Maximum integral of absolute eigenstate change: 4e-08 eV^2
  Maximum number of iterations: 333

Symmetries present (total): 1

  ( 1  0  0)
  ( 0  1  0)
  ( 0  0  1)

1 k-point (Gamma)
1 k-point in the irreducible part of the Brillouin zone
       k-points in crystal coordinates                weights
   0:     0.00000000    0.00000000    0.00000000          1/1

Wave functions: Plane wave expansion
  Cutoff energy: 350.000 eV
  Number of coefficients: 61037 (reduced to 30519)
  Pulay-stress correction: 0.000000 eV/Ang^3 (de/decut=0.000000)
  Using FFTW library
  ScaLapack parameters: grid=1x1, blocksize=None
  Wavefunction extrapolation:
    Improved wavefunction reuse through dual PAW basis 

Eigensolver
   Davidson(niter=2, smin=None, normalize=True) 

Densities:
  Coarse grid: 70*70*70 grid
  Fine grid: 140*140*140 grid
  Total Charge: 0.000000 

Density mixing:
  Method: separate
  Backend: pulay
  Linear mixing parameter: 0.05
  Mixing with 5 old densities
  Damping of long wave oscillations: 50 

Hamiltonian:
  XC and Coulomb potentials evaluated on a 140*140*140 grid
  Using the PBE Exchange-Correlation functional
 

XC parameters: PBE with 2 nearest neighbor stencil

Memory estimate:
  Process memory now: 222.42 MiB
  Calculator: 245.12 MiB
    Density: 158.58 MiB
      Arrays: 68.04 MiB
      Localized functions: 64.38 MiB
      Mixer: 26.17 MiB
    Hamiltonian: 45.80 MiB
      Arrays: 44.49 MiB
      XC: 0.00 MiB
      Poisson: 0.00 MiB
      vbar: 1.31 MiB
    Wavefunctions: 40.74 MiB
      Arrays psit_nG: 13.97 MiB
      Eigensolver: 16.37 MiB
      Projections: 0.02 MiB
      Projectors: 3.26 MiB
      PW-descriptor: 7.12 MiB

Total number of cores used: 1

Number of atoms: 6
Number of atomic orbitals: 42
Number of bands in calculation: 30
Bands to converge: occupied states only
Number of valence electrons: 42

... initialized

Initializing position-dependent things.

Density initialized from atomic densities
Creating initial wave functions:
  30 bands from LCAO basis set

           .--------------------------------------.  
          /|                                      |  
         / |                                      |  
        /  |                                      |  
       /   |                                      |  
      /    |                                      |  
     /     |                                      |  
    /      |                                      |  
   /       |                                      |  
  /        |                                      |  
 *         |           Na                         |  
 |         |                                      |  
 |         |                Na                    |  
 |         |                                      |  
 |         |            Na                        |  
 |         |                    Na                |  
 |         |                                      |  
 |         |                Na                    |  
 |         |                                      |  
 |         |             Na                       |  
 |         .--------------------------------------.  
 |        /                                      /   
 |       /                                      /    
 |      /                                      /     
 |     /                                      /      
 |    /                                      /       
 |   /                                      /        
 |  /                                      /         
 | /                                      /          
 |/                                      /           
 *--------------------------------------*            

Positions:
   0 Na    11.424955    5.046215    9.661160    ( 0.0000,  0.0000,  0.0000)
   1 Na     9.091214    7.135542   10.719357    ( 0.0000,  0.0000,  0.0000)
   2 Na     6.710298    9.263471   11.516303    ( 0.0000,  0.0000,  0.0000)
   3 Na     7.680133    8.011559    5.125248    ( 0.0000,  0.0000,  0.0000)
   4 Na     9.624253    6.463545    7.292195    ( 0.0000,  0.0000,  0.0000)
   5 Na     7.055205    8.690646    8.283979    ( 0.0000,  0.0000,  0.0000)

Unit cell:
           periodic     x           y           z      points  spacing
  1. axis:    no    16.000000    0.000000    0.000000    70     0.2286
  2. axis:    no     0.000000   16.000000    0.000000    70     0.2286
  3. axis:    no     0.000000    0.000000   16.000000    70     0.2286

  Lengths:  16.000000  16.000000  16.000000
  Angles:   90.000000  90.000000  90.000000

Effective grid spacing dv^(1/3) = 0.2286

                     log10-error:    total        iterations:
           time      wfs    density  energy       fermi  poisson
iter:   1  00:32:37  -0.32   +inf    -4.974098    0             
iter:   2  00:32:40  -1.17  -1.36    -4.996884    0             
iter:   3  00:32:44  -1.55  -1.38    -4.927629    0             
iter:   4  00:32:47  -1.98  -1.71    -4.926938    0             
iter:   5  00:32:51  -2.19  -1.73    -4.932970    0             
iter:   6  00:32:54  -2.58  -2.25    -4.935007    0             
iter:   7  00:32:57  -3.02  -2.55    -4.934953    0             
iter:   8  00:33:01  -3.28  -2.57    -4.934080    0             
iter:   9  00:33:04  -3.74  -2.91    -4.934203    0             
iter:  10  00:33:07  -4.14  -3.14    -4.934226    0             
iter:  11  00:33:11  -4.50  -3.16    -4.934258    0             
iter:  12  00:33:14  -4.75  -3.24    -4.934267    0             
iter:  13  00:33:18  -5.17  -3.38    -4.934262    0             
iter:  14  00:33:21  -5.51  -3.47    -4.934232    0             
iter:  15  00:33:24  -5.93  -3.59    -4.934235    0             
iter:  16  00:33:28  -5.87  -3.64    -4.934236    0             
iter:  17  00:33:31  -6.42  -4.23    -4.934237    0             
iter:  18  00:33:35  -6.87  -4.39    -4.934236    0             
iter:  19  00:33:38  -7.18  -4.42    -4.934236    0             
iter:  20  00:33:41  -7.34  -4.48    -4.934236    0             
iter:  21  00:33:45  -7.67  -4.74    -4.934236    0             

Converged after 21 iterations.

Dipole moment: (0.018262, -0.008495, -0.011903) |e|*Ang

Energy contributions relative to reference atoms: (reference = -26511.662986)

Kinetic:         +6.169832
Potential:       -5.648294
External:        +0.000000
XC:              -5.287988
Entropy (-ST):   +0.000000
Local:           -0.167786
--------------------------
Free energy:     -4.934236
Extrapolated:    -4.934236

Fermi level: -2.27207

 Band  Eigenvalues  Occupancy
    0    -27.82973    2.00000
    1    -27.82676    2.00000
    2    -27.82624    2.00000
    3    -27.82528    2.00000
    4    -27.82341    2.00000
    5    -27.82173    2.00000
    6    -27.82148    2.00000
    7    -27.82124    2.00000
    8    -27.81891    2.00000
    9    -27.73235    2.00000
   10    -27.72410    2.00000
   11    -27.71671    2.00000
   12    -27.71555    2.00000
   13    -27.71531    2.00000
   14    -27.71131    2.00000
   15    -27.68245    2.00000
   16    -27.67617    2.00000
   17    -27.67214    2.00000
   18     -3.89224    2.00000
   19     -2.89377    2.00000
   20     -2.89125    2.00000
   21     -1.65288    0.00000
   22     -1.52577    0.00000
   23     -1.50331    0.00000
   24     -1.32542    0.00000
   25     -0.60248    0.00000
   26     -0.56034    0.00000
   27     -0.54481    0.00000
   28     -0.47970    0.00000
   29     -0.38804    0.00000

Gap: 1.238 eV
Transition (v -> c):
  (s=0, k=0, n=20, [0.00, 0.00, 0.00]) -> (s=0, k=0, n=21, [0.00, 0.00, 0.00])

Forces in eV/Ang:
  0 Na    0.07840   -0.06642    0.02795
  1 Na    0.01795   -0.01280    0.04253
  2 Na   -0.05763    0.05544    0.07741
  3 Na   -0.02647    0.01560   -0.10607
  4 Na    0.02166   -0.02140   -0.03399
  5 Na   -0.03362    0.02865   -0.00822

System changes: positions 

Initializing position-dependent things.

Density initialized from wave functions
           .--------------------------------------.  
          /|                                      |  
         / |                                      |  
        /  |                                      |  
       /   |                                      |  
      /    |                                      |  
     /     |                                      |  
    /      |                                      |  
   /       |                                      |  
  /        |                                      |  
 *         |           Na                         |  
 |         |                                      |  
 |         |                Na                    |  
 |         |                                      |  
 |         |            Na                        |  
 |         |                    Na                |  
 |         |                                      |  
 |         |                Na                    |  
 |         |                                      |  
 |         |             Na                       |  
 |         .--------------------------------------.  
 |        /                                      /   
 |       /                                      /    
 |      /                                      /     
 |     /                                      /      
 |    /                                      /       
 |   /                                      /        
 |  /                                      /         
 | /                                      /          
 |/                                      /           
 *--------------------------------------*            

Positions:
   0 Na    11.426075    5.045266    9.661559    ( 0.0000,  0.0000,  0.0000)
   1 Na     9.091470    7.135359   10.719965    ( 0.0000,  0.0000,  0.0000)
   2 Na     6.709474    9.264263   11.517408    ( 0.0000,  0.0000,  0.0000)
   3 Na     7.679755    8.011781    5.123732    ( 0.0000,  0.0000,  0.0000)
   4 Na     9.624563    6.463239    7.291710    ( 0.0000,  0.0000,  0.0000)
   5 Na     7.054724    8.691055    8.283862    ( 0.0000,  0.0000,  0.0000)

Unit cell:
           periodic     x           y           z      points  spacing
  1. axis:    no    16.000000    0.000000    0.000000    70     0.2286
  2. axis:    no     0.000000   16.000000    0.000000    70     0.2286
  3. axis:    no     0.000000    0.000000   16.000000    70     0.2286

  Lengths:  16.000000  16.000000  16.000000
  Angles:   90.000000  90.000000  90.000000

Effective grid spacing dv^(1/3) = 0.2286

                     log10-error:    total        iterations:
           time      wfs    density  energy       fermi  poisson
iter:   1  00:33:50  -5.22   +inf    -4.934845    0             
iter:   2  00:33:53  -5.83  -3.64    -4.934842    0             
iter:   3  00:33:57  -6.20  -3.70    -4.934834    0             
iter:   4  00:34:00  -6.69  -4.37    -4.934834    0             
iter:   5  00:34:03  -7.06  -4.43    -4.934834    0             
iter:   6  00:34:07  -7.36  -4.59    -4.934834    0             
iter:   7  00:34:10  -7.80  -5.00    -4.934834    0             

Converged after 7 iterations.

Dipole moment: (0.018405, -0.008642, -0.012123) |e|*Ang

Energy contributions relative to reference atoms: (reference = -26511.662986)

Kinetic:         +6.143014
Potential:       -5.628214
External:        +0.000000
XC:              -5.281976
Entropy (-ST):   +0.000000
Local:           -0.167658
--------------------------
Free energy:     -4.934834
Extrapolated:    -4.934834

Fermi level: -2.27216

 Band  Eigenvalues  Occupancy
    0    -27.83031    2.00000
    1    -27.82739    2.00000
    2    -27.82674    2.00000
    3    -27.82569    2.00000
    4    -27.82381    2.00000
    5    -27.82228    2.00000
    6    -27.82187    2.00000
    7    -27.82155    2.00000
    8    -27.81927    2.00000
    9    -27.73258    2.00000
   10    -27.72443    2.00000
   11    -27.71698    2.00000
   12    -27.71583    2.00000
   13    -27.71560    2.00000
   14    -27.71157    2.00000
   15    -27.68273    2.00000
   16    -27.67640    2.00000
   17    -27.67237    2.00000
   18     -3.89129    2.00000
   19     -2.89357    2.00000
   20     -2.89110    2.00000
   21     -1.65321    0.00000
   22     -1.52606    0.00000
   23     -1.50363    0.00000
   24     -1.32485    0.00000
   25     -0.60257    0.00000
   26     -0.56083    0.00000
   27     -0.54482    0.00000
   28     -0.48017    0.00000
   29     -0.38857    0.00000

Gap: 1.238 eV
Transition (v -> c):
  (s=0, k=0, n=20, [0.00, 0.00, 0.00]) -> (s=0, k=0, n=21, [0.00, 0.00, 0.00])

Forces in eV/Ang:
  0 Na    0.07711   -0.06530    0.02768
  1 Na    0.01751   -0.01244    0.04169
  2 Na   -0.05655    0.05445    0.07622
  3 Na   -0.02606    0.01539   -0.10434
  4 Na    0.02105   -0.02080   -0.03318
  5 Na   -0.03275    0.02802   -0.00800

System changes: positions 

Initializing position-dependent things.

Density initialized from wave functions
           .--------------------------------------.  
          /|                                      |  
         / |                                      |  
        /  |                                      |  
       /   |                                      |  
      /    |                                      |  
     /     |                                      |  
    /      |                                      |  
   /       |                                      |  
  /        |                                      |  
 *         |           Na                         |  
 |         |                                      |  
 |         |                Na                    |  
 |         |                                      |  
 |         |            Na                        |  
 |         |                    Na                |  
 |         |                                      |  
 |         |                 Na                   |  
 |         |                                      |  
 |         |             Na                       |  
 |         .--------------------------------------.  
 |        /                                      /   
 |       /                                      /    
 |      /                                      /     
 |     /                                      /      
 |    /                                      /       
 |   /                                      /        
 |  /                                      /         
 | /                                      /          
 |/                                      /           
 *--------------------------------------*            

Positions:
   0 Na    11.454266    5.021393    9.671680    ( 0.0000,  0.0000,  0.0000)
   1 Na     9.097870    7.130812   10.735205    ( 0.0000,  0.0000,  0.0000)
   2 Na     6.688803    9.284169   11.545272    ( 0.0000,  0.0000,  0.0000)
   3 Na     7.670228    8.017407    5.085589    ( 0.0000,  0.0000,  0.0000)
   4 Na     9.632258    6.455635    7.279580    ( 0.0000,  0.0000,  0.0000)
   5 Na     7.042751    8.701297    8.280936    ( 0.0000,  0.0000,  0.0000)

Unit cell:
           periodic     x           y           z      points  spacing
  1. axis:    no    16.000000    0.000000    0.000000    70     0.2286
  2. axis:    no     0.000000   16.000000    0.000000    70     0.2286
  3. axis:    no     0.000000    0.000000   16.000000    70     0.2286

  Lengths:  16.000000  16.000000  16.000000
  Angles:   90.000000  90.000000  90.000000

Effective grid spacing dv^(1/3) = 0.2286

                     log10-error:    total        iterations:
           time      wfs    density  energy       fermi  poisson
iter:   1  00:34:15  -2.40   +inf    -4.954165    0             
iter:   2  00:34:19  -3.02  -2.22    -4.952480    0             
iter:   3  00:34:22  -3.40  -2.28    -4.947102    0             
iter:   4  00:34:26  -3.89  -2.95    -4.947087    0             
iter:   5  00:34:29  -4.27  -3.02    -4.947067    0             
iter:   6  00:34:32  -4.57  -3.18    -4.947040    0             
iter:   7  00:34:36  -5.01  -3.61    -4.947037    0             
iter:   8  00:34:39  -5.34  -3.73    -4.947039    0             
iter:   9  00:34:43  -5.74  -4.01    -4.947039    0             
iter:  10  00:34:46  -6.09  -4.09    -4.947040    0             
iter:  11  00:34:49  -6.44  -4.40    -4.947040    0             
iter:  12  00:34:53  -6.79  -4.62    -4.947040    0             
iter:  13  00:34:56  -7.18  -4.92    -4.947040    0             
iter:  14  00:35:00  -7.55  -5.07    -4.947040    0             

Converged after 14 iterations.

Dipole moment: (0.020041, -0.009957, -0.012796) |e|*Ang

Energy contributions relative to reference atoms: (reference = -26511.662986)

Kinetic:         +5.537577
Potential:       -5.179362
External:        +0.000000
XC:              -5.137321
Entropy (-ST):   +0.000000
Local:           -0.167933
--------------------------
Free energy:     -4.947040
Extrapolated:    -4.947040

Fermi level: -2.27336

 Band  Eigenvalues  Occupancy
    0    -27.83605    2.00000
    1    -27.83395    2.00000
    2    -27.83136    2.00000
    3    -27.83022    2.00000
    4    -27.82845    2.00000
    5    -27.82797    2.00000
    6    -27.82662    2.00000
    7    -27.82559    2.00000
    8    -27.82301    2.00000
    9    -27.74190    2.00000
   10    -27.73514    2.00000
   11    -27.72785    2.00000
   12    -27.72657    2.00000
   13    -27.72643    2.00000
   14    -27.72226    2.00000
   15    -27.69225    2.00000
   16    -27.68601    2.00000
   17    -27.68216    2.00000
   18     -3.86803    2.00000
   19     -2.88786    2.00000
   20     -2.88523    2.00000
   21     -1.66150    0.00000
   22     -1.53284    0.00000
   23     -1.51078    0.00000
   24     -1.31085    0.00000
   25     -0.60286    0.00000
   26     -0.57259    0.00000
   27     -0.54318    0.00000
   28     -0.49100    0.00000
   29     -0.39923    0.00000

Gap: 1.224 eV
Transition (v -> c):
  (s=0, k=0, n=20, [0.00, 0.00, 0.00]) -> (s=0, k=0, n=21, [0.00, 0.00, 0.00])

Forces in eV/Ang:
  0 Na    0.05065   -0.04297    0.01781
  1 Na    0.00877   -0.00587    0.02586
  2 Na   -0.03606    0.03432    0.04856
  3 Na   -0.01701    0.00948   -0.06709
  4 Na    0.01195   -0.01239   -0.02048
  5 Na   -0.01832    0.01687   -0.00482

System changes: positions 

Initializing position-dependent things.

Density initialized from wave functions
           .--------------------------------------.  
          /|                                      |  
         / |                                      |  
        /  |                                      |  
       /   |                                      |  
      /    |                                      |  
     /     |                                      |  
    /      |                                      |  
   /       |                                      |  
  /        |                                      |  
 *         |           Na                         |  
 |         |                                      |  
 |         |                Na                    |  
 |         |                                      |  
 |         |            Na                        |  
 |         |                    Na                |  
 |         |                                      |  
 |         |                 Na                   |  
 |         |                                      |  
 |         |             Na                       |  
 |         .--------------------------------------.  
 |        /                                      /   
 |       /                                      /    
 |      /                                      /     
 |     /                                      /      
 |    /                                      /       
 |   /                                      /        
 |  /                                      /         
 | /                                      /          
 |/                                      /           
 *--------------------------------------*            

Positions:
   0 Na    11.482493    4.997486    9.681805    ( 0.0000,  0.0000,  0.0000)
   1 Na     9.104217    7.126312   10.750431    ( 0.0000,  0.0000,  0.0000)
   2 Na     6.668128    9.304069   11.573139    ( 0.0000,  0.0000,  0.0000)
   3 Na     7.660691    8.023025    5.047428    ( 0.0000,  0.0000,  0.0000)
   4 Na     9.639922    6.448050    7.267464    ( 0.0000,  0.0000,  0.0000)
   5 Na     7.030833    8.711518    8.278015    ( 0.0000,  0.0000,  0.0000)

Unit cell:
           periodic     x           y           z      points  spacing
  1. axis:    no    16.000000    0.000000    0.000000    70     0.2286
  2. axis:    no     0.000000   16.000000    0.000000    70     0.2286
  3. axis:    no     0.000000    0.000000   16.000000    70     0.2286

  Lengths:  16.000000  16.000000  16.000000
  Angles:   90.000000  90.000000  90.000000

Effective grid spacing dv^(1/3) = 0.2286

                     log10-error:    total        iterations:
           time      wfs    density  energy       fermi  poisson
iter:   1  00:35:05  -2.41   +inf    -4.960880    0             
iter:   2  00:35:08  -3.03  -2.23    -4.959251    0             
iter:   3  00:35:12  -3.41  -2.29    -4.954077    0             
iter:   4  00:35:15  -3.90  -2.95    -4.954061    0             
iter:   5  00:35:18  -4.28  -3.02    -4.954042    0             
iter:   6  00:35:22  -4.57  -3.19    -4.954017    0             
iter:   7  00:35:25  -5.01  -3.61    -4.954014    0             
iter:   8  00:35:29  -5.34  -3.74    -4.954016    0             
iter:   9  00:35:32  -5.75  -4.03    -4.954016    0             
iter:  10  00:35:35  -6.09  -4.10    -4.954016    0             
iter:  11  00:35:39  -6.45  -4.44    -4.954016    0             
iter:  12  00:35:42  -6.80  -4.62    -4.954016    0             
iter:  13  00:35:46  -7.19  -4.92    -4.954016    0             
iter:  14  00:35:49  -7.55  -5.03    -4.954016    0             

Converged after 14 iterations.

Dipole moment: (0.021703, -0.011278, -0.013486) |e|*Ang

Energy contributions relative to reference atoms: (reference = -26511.662986)

Kinetic:         +4.947399
Potential:       -4.739371
External:        +0.000000
XC:              -4.994082
Entropy (-ST):   +0.000000
Local:           -0.167962
--------------------------
Free energy:     -4.954016
Extrapolated:    -4.954016

Fermi level: -2.27463

 Band  Eigenvalues  Occupancy
    0    -27.84261    2.00000
    1    -27.84122    2.00000
    2    -27.83700    2.00000
    3    -27.83599    2.00000
    4    -27.83467    2.00000
    5    -27.83403    2.00000
    6    -27.83276    2.00000
    7    -27.83057    2.00000
    8    -27.82779    2.00000
    9    -27.75245    2.00000
   10    -27.74693    2.00000
   11    -27.73989    2.00000
   12    -27.73870    2.00000
   13    -27.73817    2.00000
   14    -27.73414    2.00000
   15    -27.70294    2.00000
   16    -27.69688    2.00000
   17    -27.69323    2.00000
   18     -3.84539    2.00000
   19     -2.88266    2.00000
   20     -2.87906    2.00000
   21     -1.67019    0.00000
   22     -1.53984    0.00000
   23     -1.51809    0.00000
   24     -1.29745    0.00000
   25     -0.60334    0.00000
   26     -0.58424    0.00000
   27     -0.54176    0.00000
   28     -0.50169    0.00000
   29     -0.40972    0.00000

Gap: 1.209 eV
Transition (v -> c):
  (s=0, k=0, n=20, [0.00, 0.00, 0.00]) -> (s=0, k=0, n=21, [0.00, 0.00, 0.00])

Forces in eV/Ang:
  0 Na    0.02613   -0.02215    0.00866
  1 Na    0.00091   -0.00004    0.01048
  2 Na   -0.01712    0.01583    0.02282
  3 Na   -0.00865    0.00393   -0.03229
  4 Na    0.00325   -0.00432   -0.00835
  5 Na   -0.00466    0.00626   -0.00167

System changes: positions 

Initializing position-dependent things.

Density initialized from wave functions
           .--------------------------------------.  
          /|                                      |  
         / |                                      |  
        /  |                                      |  
       /   |                                      |  
      /    |                                      |  
     /     |                                      |  
    /      |                                      |  
   /       |                                      |  
  /        |                                      |  
 *         |           Na                         |  
 |         |                                      |  
 |         |                Na                    |  
 |         |                                      |  
 |         |            Na                        |  
 |         |                    Na                |  
 |         |                                      |  
 |         |                 Na                   |  
 |         |                                      |  
 |         |             Na                       |  
 |         .--------------------------------------.  
 |        /                                      /   
 |       /                                      /    
 |      /                                      /     
 |     /                                      /      
 |    /                                      /       
 |   /                                      /        
 |  /                                      /         
 | /                                      /          
 |/                                      /           
 *--------------------------------------*            

Positions:
   0 Na    11.507341    4.976443    9.690703    ( 0.0000,  0.0000,  0.0000)
   1 Na     9.109703    7.122433   10.763756    ( 0.0000,  0.0000,  0.0000)
   2 Na     6.649970    9.321534   11.597607    ( 0.0000,  0.0000,  0.0000)
   3 Na     7.652300    8.027944    5.013900    ( 0.0000,  0.0000,  0.0000)
   4 Na     9.646587    6.441430    7.256859    ( 0.0000,  0.0000,  0.0000)
   5 Na     7.020475    8.720448    8.275467    ( 0.0000,  0.0000,  0.0000)

Unit cell:
           periodic     x           y           z      points  spacing
  1. axis:    no    16.000000    0.000000    0.000000    70     0.2286
  2. axis:    no     0.000000   16.000000    0.000000    70     0.2286
  3. axis:    no     0.000000    0.000000   16.000000    70     0.2286

  Lengths:  16.000000  16.000000  16.000000
  Angles:   90.000000  90.000000  90.000000

Effective grid spacing dv^(1/3) = 0.2286

                     log10-error:    total        iterations:
           time      wfs    density  energy       fermi  poisson
iter:   1  00:35:54  -2.53   +inf    -4.961179    0             
iter:   2  00:35:57  -3.14  -2.29    -4.959965    0             
iter:   3  00:36:01  -3.53  -2.35    -4.956127    0             
iter:   4  00:36:04  -4.02  -3.01    -4.956114    0             
iter:   5  00:36:08  -4.39  -3.09    -4.956100    0             
iter:   6  00:36:11  -4.69  -3.25    -4.956083    0             
iter:   7  00:36:14  -5.13  -3.67    -4.956080    0             
iter:   8  00:36:18  -5.46  -3.81    -4.956082    0             
iter:   9  00:36:21  -5.87  -4.10    -4.956082    0             
iter:  10  00:36:25  -6.21  -4.17    -4.956082    0             
iter:  11  00:36:28  -6.57  -4.50    -4.956082    0             
iter:  12  00:36:31  -6.92  -4.67    -4.956082    0             
iter:  13  00:36:35  -7.31  -4.97    -4.956082    0             
iter:  14  00:36:38  -7.66  -5.07    -4.956082    0             

Converged after 14 iterations.

Dipole moment: (0.023186, -0.012453, -0.014134) |e|*Ang

Energy contributions relative to reference atoms: (reference = -26511.662986)

Kinetic:         +4.447532
Potential:       -4.365297
External:        +0.000000
XC:              -4.870360
Entropy (-ST):   +0.000000
Local:           -0.167957
--------------------------
Free energy:     -4.956082
Extrapolated:    -4.956082

Fermi level: -2.27583

 Band  Eigenvalues  Occupancy
    0    -27.84891    2.00000
    1    -27.84808    2.00000
    2    -27.84262    2.00000
    3    -27.84176    2.00000
    4    -27.84116    2.00000
    5    -27.83952    2.00000
    6    -27.83877    2.00000
    7    -27.83572    2.00000
    8    -27.83265    2.00000
    9    -27.76256    2.00000
   10    -27.75806    2.00000
   11    -27.75121    2.00000
   12    -27.75008    2.00000
   13    -27.74923    2.00000
   14    -27.74532    2.00000
   15    -27.71317    2.00000
   16    -27.70725    2.00000
   17    -27.70376    2.00000
   18     -3.82598    2.00000
   19     -2.87823    2.00000
   20     -2.87354    2.00000
   21     -1.67813    0.00000
   22     -1.54610    0.00000
   23     -1.52456    0.00000
   24     -1.28612    0.00000
   25     -0.60387    0.00000
   26     -0.59433    0.00000
   27     -0.54066    0.00000
   28     -0.51090    0.00000
   29     -0.41873    0.00000

Gap: 1.195 eV
Transition (v -> c):
  (s=0, k=0, n=20, [0.00, 0.00, 0.00]) -> (s=0, k=0, n=21, [0.00, 0.00, 0.00])

Forces in eV/Ang:
  0 Na    0.00575   -0.00485    0.00119
  1 Na   -0.00523    0.00445   -0.00234
  2 Na   -0.00146    0.00065    0.00155
  3 Na   -0.00167   -0.00065   -0.00300
  4 Na   -0.00391    0.00234    0.00165
  5 Na    0.00651   -0.00242    0.00099

Timing:                                      incl.     excl.
-------------------------------------------------------------------
Density initialized from wave functions:     1.110     1.110   0.2% |
 Symmetrize density:                         0.000     0.000   0.0% |
Forces:                                      6.490     6.490   1.3% ||
Hamiltonian:                                10.689     0.033   0.0% |
 Atomic:                                     1.607     0.006   0.0% |
  XC Correction:                             1.601     1.601   0.3% |
 Calculate atomic Hamiltonians:              0.625     0.625   0.1% |
 Communicate:                                0.000     0.000   0.0% |
 Initialize Hamiltonian:                     0.000     0.000   0.0% |
 Poisson:                                    0.071     0.071   0.0% |
 XC 3D grid:                                 8.353     8.353   1.7% ||
LCAO initialization:                         0.324     0.036   0.0% |
 LCAO eigensolver:                           0.036     0.001   0.0% |
  Calculate projections:                     0.000     0.000   0.0% |
  DenseAtomicCorrection:                     0.000     0.000   0.0% |
  Distribute overlap matrix:                 0.000     0.000   0.0% |
  Orbital Layouts:                           0.001     0.001   0.0% |
  Potential matrix:                          0.035     0.035   0.0% |
 LCAO to grid:                               0.222     0.222   0.0% |
 Set positions (LCAO WFS):                   0.029     0.005   0.0% |
  Basic WFS set positions:                   0.000     0.000   0.0% |
  Basis functions set positions:             0.000     0.000   0.0% |
  P tci:                                     0.014     0.014   0.0% |
  ST tci:                                    0.005     0.005   0.0% |
  mktci:                                     0.006     0.006   0.0% |
PWDescriptor:                                0.022     0.022   0.0% |
Redistribute:                                0.003     0.003   0.0% |
SCF-cycle:                                 225.641     0.034   0.0% |
 Davidson:                                  66.711     9.075   1.8% ||
  Apply H:                                  12.583    12.204   2.4% ||
   HMM T:                                    0.378     0.378   0.1% |
  Subspace diag:                            14.277     0.010   0.0% |
   calc_h_matrix:                           13.016     0.402   0.1% |
    Apply H:                                12.614    12.227   2.4% ||
     HMM T:                                  0.387     0.387   0.1% |
   diagonalize:                              0.027     0.027   0.0% |
   rotate_psi:                               1.225     1.225   0.2% |
  calc. matrices:                           28.206     3.032   0.6% |
   Apply H:                                 25.174    24.421   4.9% |-|
    HMM T:                                   0.752     0.752   0.2% |
  diagonalize:                               0.125     0.125   0.0% |
  rotate_psi:                                2.445     2.445   0.5% |
 Density:                                   19.505     0.002   0.0% |
  Atomic density matrices:                   0.070     0.070   0.0% |
  Mix:                                      13.478    13.478   2.7% ||
  Multipole moments:                         0.016     0.016   0.0% |
  Pseudo density:                            5.939     5.937   1.2% |
   Symmetrize density:                       0.002     0.002   0.0% |
 Hamiltonian:                              139.179     0.423   0.1% |
  Atomic:                                   20.864     0.076   0.0% |
   XC Correction:                           20.788    20.788   4.1% |-|
  Calculate atomic Hamiltonians:             8.108     8.108   1.6% ||
  Communicate:                               0.001     0.001   0.0% |
  Poisson:                                   0.870     0.870   0.2% |
  XC 3D grid:                              108.912   108.912  21.7% |--------|
 Orthonormalize:                             0.212     0.001   0.0% |
  calc_s_matrix:                             0.026     0.026   0.0% |
  inverse-cholesky:                          0.003     0.003   0.0% |
  projections:                               0.133     0.133   0.0% |
  rotate_psi_s:                              0.050     0.050   0.0% |
Set symmetry:                                0.001     0.001   0.0% |
Other:                                     256.783   256.783  51.2% |-------------------|
-------------------------------------------------------------------
Total:                                               501.063 100.0%

Memory usage: 1.03 GiB
Date: Sat Feb 15 00:40:52 2020
