
  ___ ___ ___ _ _ _  
 |   |   |_  | | | | 
 | | | | | . | | | | 
 |__ |  _|___|_____|  19.8.1
 |___|_|             

User:   hallborn@hebbe07-8
Date:   Tue Feb 18 01:49:56 2020
Arch:   x86_64
Pid:    25065
Python: 3.7.2
gpaw:   /apps/Hebbe7/software/MPI/intel/2019.1.144-GCC-8.2.0-2.31.1/impi/2018.4.274/GPAW/19.8.1-Python-3.7.2/lib/python3.7/site-packages/gpaw
_gpaw:  /apps/Hebbe7/software/MPI/intel/2019.1.144-GCC-8.2.0-2.31.1/impi/2018.4.274/GPAW/19.8.1-Python-3.7.2/bin/
        gpaw-python
ase:    /apps/Hebbe7/software/MPI/intel/2019.1.144-GCC-8.2.0-2.31.1/impi/2018.4.274/ASE/3.18.0-Python-3.7.2/lib/python3.7/site-packages/ase (version 3.18.0)
numpy:  /apps/Hebbe7/software/MPI/intel/2019.1.144-GCC-8.2.0-2.31.1/impi/2018.4.274/SciPy-bundle/2019.03/lib/python3.7/site-packages/numpy (version 1.16.2)
scipy:  /apps/Hebbe7/software/MPI/intel/2019.1.144-GCC-8.2.0-2.31.1/impi/2018.4.274/SciPy-bundle/2019.03/lib/python3.7/site-packages/scipy (version 1.2.1)
libxc:  4.3.4
units:  Angstrom and eV
cores:  1

Input parameters:
  basis: dzp
  h: 0.25
  mode: {ecut: 350.0,
         gammacentered: False,
         name: pw}
  setups: {Na: 1}
  xc: PBE

System changes: positions, numbers, cell, pbc, initial_charges, initial_magmoms 

Initialize ...

Na-setup:
  name: Sodium
  id: 8dbce52902f3add137ce7d12431c9cac
  Z: 11
  valence: 1
  core: 10
  charge: 0.0
  file: /apps/Common/Core/GPAW-setups/0.9.20000/Na.1.PBE.gz
  compensation charges: gauss, rc=0.43, lmax=2
  cutoffs: 2.36(filt), 3.60(core),
  valence states:
                energy  radius
    3s(1.00)    -2.744   1.349
    3p(0.00)    -0.743   1.349
    *s          24.468   1.349

  LCAO basis set for Na:
    Name: 1.dzp
    File: /apps/Common/Core/GPAW-setups/0.9.20000/Na.1.dzp.basis.gz
    Number of radial functions: 3
    Number of spherical harmonics: 5
      l=0, rc=11.7656 Bohr: 3s-sz confined orbital
      l=0, rc=7.1094 Bohr: 3s-dz split-valence wave
      l=1, rc=11.7656 Bohr: p-type Gaussian polarization

Reference energy: -26511.662975

Spin-paired calculation

Occupation numbers:
  Fermi-Dirac: width=0.0000 eV

Convergence criteria:
  Maximum total energy change: 0.0005 eV / electron
  Maximum integral of absolute density change: 0.0001 electrons
  Maximum integral of absolute eigenstate change: 4e-08 eV^2
  Maximum number of iterations: 333

Symmetries present (total): 1

  ( 1  0  0)
  ( 0  1  0)
  ( 0  0  1)

1 k-point (Gamma)
1 k-point in the irreducible part of the Brillouin zone
       k-points in crystal coordinates                weights
   0:     0.00000000    0.00000000    0.00000000          1/1

Wave functions: Plane wave expansion
  Cutoff energy: 350.000 eV
  Number of coefficients: 61037 (reduced to 30519)
  Pulay-stress correction: 0.000000 eV/Ang^3 (de/decut=0.000000)
  Using FFTW library
  ScaLapack parameters: grid=1x1, blocksize=None
  Wavefunction extrapolation:
    Improved wavefunction reuse through dual PAW basis 

Eigensolver
   Davidson(niter=2, smin=None, normalize=True) 

Densities:
  Coarse grid: 64*64*64 grid
  Fine grid: 128*128*128 grid
  Total Charge: 0.000000 

Density mixing:
  Method: separate
  Backend: pulay
  Linear mixing parameter: 0.05
  Mixing with 5 old densities
  Damping of long wave oscillations: 50 

Hamiltonian:
  XC and Coulomb potentials evaluated on a 128*128*128 grid
  Using the PBE Exchange-Correlation functional
 

XC parameters: PBE with 2 nearest neighbor stencil

Memory estimate:
  Process memory now: 191.15 MiB
  Calculator: 175.33 MiB
    Density: 123.30 MiB
      Arrays: 52.00 MiB
      Localized functions: 51.30 MiB
      Mixer: 20.00 MiB
    Hamiltonian: 35.05 MiB
      Arrays: 34.00 MiB
      XC: 0.00 MiB
      Poisson: 0.00 MiB
      vbar: 1.05 MiB
    Wavefunctions: 16.98 MiB
      Arrays psit_nG: 3.73 MiB
      Eigensolver: 6.06 MiB
      Projections: 0.00 MiB
      Projectors: 1.63 MiB
      PW-descriptor: 5.56 MiB

Total number of cores used: 1

Number of atoms: 6
Number of atomic orbitals: 30
Number of bands in calculation: 8
Bands to converge: occupied states only
Number of valence electrons: 6

... initialized

Initializing position-dependent things.

Density initialized from atomic densities
Creating initial wave functions:
  8 bands from LCAO basis set

           .--------------------------------------.  
          /|                                      |  
         / |                                      |  
        /  |                                      |  
       /   |                                      |  
      /    |                                      |  
     /     |                                      |  
    /      |                                      |  
   /       |                                      |  
  /        |                                      |  
 *         |           Na                         |  
 |         |                                      |  
 |         |                Na                    |  
 |         |                                      |  
 |         |            Na                        |  
 |         |                    Na                |  
 |         |                                      |  
 |         |                Na                    |  
 |         |                                      |  
 |         |             Na                       |  
 |         .--------------------------------------.  
 |        /                                      /   
 |       /                                      /    
 |      /                                      /     
 |     /                                      /      
 |    /                                      /       
 |   /                                      /        
 |  /                                      /         
 | /                                      /          
 |/                                      /           
 *--------------------------------------*            

Positions:
   0 Na    11.424955    5.046215    9.661160    ( 0.0000,  0.0000,  0.0000)
   1 Na     9.091214    7.135542   10.719357    ( 0.0000,  0.0000,  0.0000)
   2 Na     6.710298    9.263471   11.516303    ( 0.0000,  0.0000,  0.0000)
   3 Na     7.680133    8.011559    5.125248    ( 0.0000,  0.0000,  0.0000)
   4 Na     9.624253    6.463545    7.292195    ( 0.0000,  0.0000,  0.0000)
   5 Na     7.055205    8.690646    8.283979    ( 0.0000,  0.0000,  0.0000)

Unit cell:
           periodic     x           y           z      points  spacing
  1. axis:    no    16.000000    0.000000    0.000000    64     0.2500
  2. axis:    no     0.000000   16.000000    0.000000    64     0.2500
  3. axis:    no     0.000000    0.000000   16.000000    64     0.2500

  Lengths:  16.000000  16.000000  16.000000
  Angles:   90.000000  90.000000  90.000000

Effective grid spacing dv^(1/3) = 0.2500

                     log10-error:    total        iterations:
           time      wfs    density  energy       fermi  poisson
iter:   1  01:50:01  +0.25   +inf    -5.093611    0             
iter:   2  01:50:03  -1.69  -0.49    -5.041565    0             
iter:   3  01:50:05  -1.96  -0.52    -4.851011    0             
iter:   4  01:50:07  -3.09  -0.90    -4.834486    0             
iter:   5  01:50:10  -3.07  -0.89    -4.828861    0             
iter:   6  01:50:12  -3.83  -1.37    -4.829608    0             
iter:   7  01:50:14  -4.43  -1.54    -4.830734    0             
iter:   8  01:50:16  -4.55  -1.78    -4.831315    0             
iter:   9  01:50:19  -5.26  -2.30    -4.831340    0             
iter:  10  01:50:21  -5.79  -2.52    -4.831335    0             
iter:  11  01:50:23  -6.65  -2.70    -4.831334    0             
iter:  12  01:50:26  -7.12  -2.77    -4.831338    0             
iter:  13  01:50:28  -6.61  -2.83    -4.831340    0             
iter:  14  01:50:30  -7.46  -3.05    -4.831340    0             
iter:  15  01:50:32  -7.62  -3.15    -4.831342    0             
iter:  16  01:50:35  -8.00  -3.31    -4.831342    0             
iter:  17  01:50:37  -8.10  -3.42    -4.831342    0             
iter:  18  01:50:39  -8.77  -3.58    -4.831342    0             
iter:  19  01:50:42  -8.61  -3.63    -4.831342    0             
iter:  20  01:50:44  -9.07  -3.72    -4.831342    0             
iter:  21  01:50:46  -9.01  -3.75    -4.831342    0             
iter:  22  01:50:48  -9.55  -3.77    -4.831342    0             
iter:  23  01:50:51  -8.84  -3.79    -4.831342    0             
iter:  24  01:50:53  -8.87  -3.91    -4.831342    0             
iter:  25  01:50:55  -9.57  -4.12    -4.831342    0             

Converged after 25 iterations.

Dipole moment: (0.018528, -0.008673, -0.012129) |e|*Ang

Energy contributions relative to reference atoms: (reference = -26511.662975)

Kinetic:        +11.684788
Potential:      -10.663257
External:        +0.000000
XC:              -5.854088
Entropy (-ST):   +0.000000
Local:           +0.001215
--------------------------
Free energy:     -4.831342
Extrapolated:    -4.831342

Fermi level: -2.28125

 Band  Eigenvalues  Occupancy
    0     -3.89873    2.00000
    1     -2.90230    2.00000
    2     -2.89975    2.00000
    3     -1.66275    0.00000
    4     -1.53534    0.00000
    5     -1.51278    0.00000
    6     -1.33014    0.00000
    7     -0.56415    0.00000

Gap: 1.237 eV
Transition (v -> c):
  (s=0, k=0, n=2, [0.00, 0.00, 0.00]) -> (s=0, k=0, n=3, [0.00, 0.00, 0.00])

Forces in eV/Ang:
  0 Na    0.07651   -0.06465    0.02779
  1 Na    0.01698   -0.01210    0.03927
  2 Na   -0.05640    0.05431    0.07591
  3 Na   -0.02599    0.01548   -0.10389
  4 Na    0.02008   -0.01962   -0.03163
  5 Na   -0.03120    0.02672   -0.00727

System changes: positions 

Initializing position-dependent things.

Density initialized from wave functions
           .--------------------------------------.  
          /|                                      |  
         / |                                      |  
        /  |                                      |  
       /   |                                      |  
      /    |                                      |  
     /     |                                      |  
    /      |                                      |  
   /       |                                      |  
  /        |                                      |  
 *         |           Na                         |  
 |         |                                      |  
 |         |                Na                    |  
 |         |                                      |  
 |         |            Na                        |  
 |         |                    Na                |  
 |         |                                      |  
 |         |                Na                    |  
 |         |                                      |  
 |         |             Na                       |  
 |         .--------------------------------------.  
 |        /                                      /   
 |       /                                      /    
 |      /                                      /     
 |     /                                      /      
 |    /                                      /       
 |   /                                      /        
 |  /                                      /         
 | /                                      /          
 |/                                      /           
 *--------------------------------------*            

Positions:
   0 Na    11.426048    5.045291    9.661557    ( 0.0000,  0.0000,  0.0000)
   1 Na     9.091456    7.135369   10.719918    ( 0.0000,  0.0000,  0.0000)
   2 Na     6.709492    9.264247   11.517387    ( 0.0000,  0.0000,  0.0000)
   3 Na     7.679762    8.011780    5.123764    ( 0.0000,  0.0000,  0.0000)
   4 Na     9.624540    6.463264    7.291743    ( 0.0000,  0.0000,  0.0000)
   5 Na     7.054759    8.691028    8.283875    ( 0.0000,  0.0000,  0.0000)

Unit cell:
           periodic     x           y           z      points  spacing
  1. axis:    no    16.000000    0.000000    0.000000    64     0.2500
  2. axis:    no     0.000000   16.000000    0.000000    64     0.2500
  3. axis:    no     0.000000    0.000000   16.000000    64     0.2500

  Lengths:  16.000000  16.000000  16.000000
  Angles:   90.000000  90.000000  90.000000

Effective grid spacing dv^(1/3) = 0.2500

                     log10-error:    total        iterations:
           time      wfs    density  energy       fermi  poisson
iter:   1  01:50:59  -5.07   +inf    -4.831916    0             
iter:   2  01:51:01  -6.19  -2.83    -4.831914    0             
iter:   3  01:51:04  -6.17  -2.88    -4.831908    0             
iter:   4  01:51:06  -7.45  -3.37    -4.831907    0             
iter:   5  01:51:08  -8.10  -3.61    -4.831907    0             
iter:   6  01:51:10  -7.92  -3.64    -4.831907    0             
iter:   7  01:51:13  -8.68  -4.22    -4.831907    0             

Converged after 7 iterations.

Dipole moment: (0.018516, -0.008630, -0.012098) |e|*Ang

Energy contributions relative to reference atoms: (reference = -26511.662975)

Kinetic:        +11.647772
Potential:      -10.634385
External:        +0.000000
XC:              -5.846700
Entropy (-ST):   +0.000000
Local:           +0.001405
--------------------------
Free energy:     -4.831907
Extrapolated:    -4.831907

Fermi level: -2.28136

 Band  Eigenvalues  Occupancy
    0     -3.89788    2.00000
    1     -2.90213    2.00000
    2     -2.89958    2.00000
    3     -1.66313    0.00000
    4     -1.53563    0.00000
    5     -1.51306    0.00000
    6     -1.32962    0.00000
    7     -0.56993    0.00000

Gap: 1.236 eV
Transition (v -> c):
  (s=0, k=0, n=2, [0.00, 0.00, 0.00]) -> (s=0, k=0, n=3, [0.00, 0.00, 0.00])

Forces in eV/Ang:
  0 Na    0.07545   -0.06376    0.02731
  1 Na    0.01665   -0.01186    0.03883
  2 Na   -0.05556    0.05346    0.07476
  3 Na   -0.02554    0.01514   -0.10235
  4 Na    0.01985   -0.01941   -0.03136
  5 Na   -0.03076    0.02637   -0.00717

System changes: positions 

Initializing position-dependent things.

Density initialized from wave functions
           .--------------------------------------.  
          /|                                      |  
         / |                                      |  
        /  |                                      |  
       /   |                                      |  
      /    |                                      |  
     /     |                                      |  
    /      |                                      |  
   /       |                                      |  
  /        |                                      |  
 *         |           Na                         |  
 |         |                                      |  
 |         |                Na                    |  
 |         |                                      |  
 |         |            Na                        |  
 |         |                    Na                |  
 |         |                                      |  
 |         |                 Na                   |  
 |         |                                      |  
 |         |             Na                       |  
 |         .--------------------------------------.  
 |        /                                      /   
 |       /                                      /    
 |      /                                      /     
 |     /                                      /      
 |    /                                      /       
 |   /                                      /        
 |  /                                      /         
 | /                                      /          
 |/                                      /           
 *--------------------------------------*            

Positions:
   0 Na    11.454151    5.021543    9.671729    ( 0.0000,  0.0000,  0.0000)
   1 Na     9.097658    7.130952   10.734382    ( 0.0000,  0.0000,  0.0000)
   2 Na     6.688798    9.284159   11.545231    ( 0.0000,  0.0000,  0.0000)
   3 Na     7.670250    8.017419    5.085643    ( 0.0000,  0.0000,  0.0000)
   4 Na     9.631933    6.456033    7.280062    ( 0.0000,  0.0000,  0.0000)
   5 Na     7.043302    8.700850    8.281205    ( 0.0000,  0.0000,  0.0000)

Unit cell:
           periodic     x           y           z      points  spacing
  1. axis:    no    16.000000    0.000000    0.000000    64     0.2500
  2. axis:    no     0.000000   16.000000    0.000000    64     0.2500
  3. axis:    no     0.000000    0.000000   16.000000    64     0.2500

  Lengths:  16.000000  16.000000  16.000000
  Angles:   90.000000  90.000000  90.000000

Effective grid spacing dv^(1/3) = 0.2500

                     log10-error:    total        iterations:
           time      wfs    density  energy       fermi  poisson
iter:   1  01:51:17  -2.24   +inf    -4.850088    0             
iter:   2  01:51:19  -3.36  -1.40    -4.848593    0             
iter:   3  01:51:21  -3.35  -1.45    -4.844073    0             
iter:   4  01:51:23  -4.62  -1.96    -4.843690    0             
iter:   5  01:51:26  -5.28  -2.20    -4.843686    0             
iter:   6  01:51:28  -5.13  -2.23    -4.843620    0             
iter:   7  01:51:30  -5.85  -2.81    -4.843623    0             
iter:   8  01:51:32  -6.55  -2.89    -4.843625    0             
iter:   9  01:51:34  -6.73  -2.95    -4.843627    0             
iter:  10  01:51:37  -7.09  -3.12    -4.843627    0             
iter:  11  01:51:39  -7.14  -3.37    -4.843627    0             
iter:  12  01:51:41  -8.22  -3.73    -4.843627    0             
iter:  13  01:51:43  -8.67  -3.94    -4.843627    0             
iter:  14  01:51:46  -8.91  -4.01    -4.843627    0             

Converged after 14 iterations.

Dipole moment: (0.020142, -0.009932, -0.012754) |e|*Ang

Energy contributions relative to reference atoms: (reference = -26511.662975)

Kinetic:        +10.689696
Potential:       -9.875378
External:        +0.000000
XC:              -5.658315
Entropy (-ST):   +0.000000
Local:           +0.000370
--------------------------
Free energy:     -4.843627
Extrapolated:    -4.843627

Fermi level: -2.28283

 Band  Eigenvalues  Occupancy
    0     -3.87503    2.00000
    1     -2.89648    2.00000
    2     -2.89382    2.00000
    3     -1.67184    0.00000
    4     -1.54230    0.00000
    5     -1.52013    0.00000
    6     -1.31576    0.00000
    7     -0.58352    0.00000

Gap: 1.222 eV
Transition (v -> c):
  (s=0, k=0, n=2, [0.00, 0.00, 0.00]) -> (s=0, k=0, n=3, [0.00, 0.00, 0.00])

Forces in eV/Ang:
  0 Na    0.04922   -0.04160    0.01737
  1 Na    0.00800   -0.00535    0.02310
  2 Na   -0.03494    0.03332    0.04699
  3 Na   -0.01676    0.00941   -0.06479
  4 Na    0.01084   -0.01102   -0.01853
  5 Na   -0.01636    0.01530   -0.00410

System changes: positions 

Initializing position-dependent things.

Density initialized from wave functions
           .--------------------------------------.  
          /|                                      |  
         / |                                      |  
        /  |                                      |  
       /   |                                      |  
      /    |                                      |  
     /     |                                      |  
    /      |                                      |  
   /       |                                      |  
  /        |                                      |  
 *         |           Na                         |  
 |         |                                      |  
 |         |                Na                    |  
 |         |                                      |  
 |         |            Na                        |  
 |         |                    Na                |  
 |         |                                      |  
 |         |                 Na                   |  
 |         |                                      |  
 |         |             Na                       |  
 |         .--------------------------------------.  
 |        /                                      /   
 |       /                                      /    
 |      /                                      /     
 |     /                                      /      
 |    /                                      /       
 |   /                                      /        
 |  /                                      /         
 | /                                      /          
 |/                                      /           
 *--------------------------------------*            

Positions:
   0 Na    11.482296    4.997757    9.681906    ( 0.0000,  0.0000,  0.0000)
   1 Na     9.103805    7.126582   10.748818    ( 0.0000,  0.0000,  0.0000)
   2 Na     6.668102    9.304066   11.573076    ( 0.0000,  0.0000,  0.0000)
   3 Na     7.660722    8.023057    5.047509    ( 0.0000,  0.0000,  0.0000)
   4 Na     9.639288    6.448829    7.268407    ( 0.0000,  0.0000,  0.0000)
   5 Na     7.031913    8.710644    8.278544    ( 0.0000,  0.0000,  0.0000)

Unit cell:
           periodic     x           y           z      points  spacing
  1. axis:    no    16.000000    0.000000    0.000000    64     0.2500
  2. axis:    no     0.000000   16.000000    0.000000    64     0.2500
  3. axis:    no     0.000000    0.000000   16.000000    64     0.2500

  Lengths:  16.000000  16.000000  16.000000
  Angles:   90.000000  90.000000  90.000000

Effective grid spacing dv^(1/3) = 0.2500

                     log10-error:    total        iterations:
           time      wfs    density  energy       fermi  poisson
iter:   1  01:51:50  -2.25   +inf    -4.856387    0             
iter:   2  01:51:52  -3.36  -1.41    -4.854940    0             
iter:   3  01:51:54  -3.37  -1.46    -4.850571    0             
iter:   4  01:51:56  -4.63  -1.97    -4.850224    0             
iter:   5  01:51:59  -5.27  -2.21    -4.850218    0             
iter:   6  01:52:01  -5.14  -2.24    -4.850157    0             
iter:   7  01:52:03  -5.86  -2.83    -4.850160    0             
iter:   8  01:52:05  -6.55  -2.90    -4.850161    0             
iter:   9  01:52:07  -6.65  -3.00    -4.850163    0             
iter:  10  01:52:10  -7.40  -3.17    -4.850163    0             
iter:  11  01:52:12  -7.14  -3.16    -4.850163    0             
iter:  12  01:52:14  -7.87  -3.75    -4.850163    0             
iter:  13  01:52:16  -8.35  -3.88    -4.850163    0             
iter:  14  01:52:19  -8.54  -3.94    -4.850163    0             
iter:  15  01:52:21  -9.26  -4.21    -4.850163    0             

Converged after 15 iterations.

Dipole moment: (0.021910, -0.011323, -0.013387) |e|*Ang

Energy contributions relative to reference atoms: (reference = -26511.662975)

Kinetic:         +9.781596
Potential:       -9.156642
External:        +0.000000
XC:              -5.475909
Entropy (-ST):   +0.000000
Local:           +0.000792
--------------------------
Free energy:     -4.850163
Extrapolated:    -4.850163

Fermi level: -2.28424

 Band  Eigenvalues  Occupancy
    0     -3.85276    2.00000
    1     -2.89129    2.00000
    2     -2.88760    2.00000
    3     -1.68089    0.00000
    4     -1.54909    0.00000
    5     -1.52726    0.00000
    6     -1.30248    0.00000
    7     -0.59524    0.00000

Gap: 1.207 eV
Transition (v -> c):
  (s=0, k=0, n=2, [0.00, 0.00, 0.00]) -> (s=0, k=0, n=3, [0.00, 0.00, 0.00])

Forces in eV/Ang:
  0 Na    0.02471   -0.02094    0.00821
  1 Na    0.00014    0.00051    0.00857
  2 Na   -0.01580    0.01459    0.02107
  3 Na   -0.00823    0.00384   -0.02964
  4 Na    0.00233   -0.00313   -0.00701
  5 Na   -0.00314    0.00512   -0.00117

System changes: positions 

Initializing position-dependent things.

Density initialized from wave functions
           .--------------------------------------.  
          /|                                      |  
         / |                                      |  
        /  |                                      |  
       /   |                                      |  
      /    |                                      |  
     /     |                                      |  
    /      |                                      |  
   /       |                                      |  
  /        |                                      |  
 *         |           Na                         |  
 |         |                                      |  
 |         |                Na                    |  
 |         |                                      |  
 |         |            Na                        |  
 |         |                    Na                |  
 |         |                                      |  
 |         |                 Na                   |  
 |         |                                      |  
 |         |             Na                       |  
 |         .--------------------------------------.  
 |        /                                      /   
 |       /                                      /    
 |      /                                      /     
 |     /                                      /      
 |    /                                      /       
 |   /                                      /        
 |  /                                      /         
 | /                                      /          
 |/                                      /           
 *--------------------------------------*            

Positions:
   0 Na    11.505073    4.978508    9.690128    ( 0.0000,  0.0000,  0.0000)
   1 Na     9.108675    7.123132   10.760419    ( 0.0000,  0.0000,  0.0000)
   2 Na     6.651401    9.320119   11.595544    ( 0.0000,  0.0000,  0.0000)
   3 Na     7.653016    8.027595    5.016726    ( 0.0000,  0.0000,  0.0000)
   4 Na     9.645158    6.443063    7.259037    ( 0.0000,  0.0000,  0.0000)
   5 Na     7.022832    8.718501    8.276414    ( 0.0000,  0.0000,  0.0000)

Unit cell:
           periodic     x           y           z      points  spacing
  1. axis:    no    16.000000    0.000000    0.000000    64     0.2500
  2. axis:    no     0.000000   16.000000    0.000000    64     0.2500
  3. axis:    no     0.000000    0.000000   16.000000    64     0.2500

  Lengths:  16.000000  16.000000  16.000000
  Angles:   90.000000  90.000000  90.000000

Effective grid spacing dv^(1/3) = 0.2500

                     log10-error:    total        iterations:
           time      wfs    density  energy       fermi  poisson
iter:   1  01:52:25  -2.45   +inf    -4.855778    0             
iter:   2  01:52:27  -3.55  -1.51    -4.854867    0             
iter:   3  01:52:29  -3.57  -1.56    -4.852127    0             
iter:   4  01:52:31  -4.82  -2.07    -4.851920    0             
iter:   5  01:52:34  -5.45  -2.31    -4.851915    0             
iter:   6  01:52:36  -5.34  -2.35    -4.851877    0             
iter:   7  01:52:38  -6.06  -2.93    -4.851879    0             
iter:   8  01:52:40  -6.72  -3.00    -4.851880    0             
iter:   9  01:52:43  -6.83  -3.14    -4.851881    0             
iter:  10  01:52:45  -7.62  -3.28    -4.851881    0             
iter:  11  01:52:47  -7.25  -3.22    -4.851881    0             
iter:  12  01:52:49  -8.12  -3.92    -4.851881    0             
iter:  13  01:52:52  -8.58  -3.95    -4.851881    0             
iter:  14  01:52:54  -8.82  -4.01    -4.851881    0             

Converged after 14 iterations.

Dipole moment: (0.023215, -0.012360, -0.014052) |e|*Ang

Energy contributions relative to reference atoms: (reference = -26511.662975)

Kinetic:         +9.072517
Potential:       -8.593682
External:        +0.000000
XC:              -5.331608
Entropy (-ST):   +0.000000
Local:           +0.000891
--------------------------
Free energy:     -4.851881
Extrapolated:    -4.851881

Fermi level: -2.28546

 Band  Eigenvalues  Occupancy
    0     -3.83515    2.00000
    1     -2.88710    2.00000
    2     -2.88249    2.00000
    3     -1.68843    0.00000
    4     -1.55462    0.00000
    5     -1.53301    0.00000
    6     -1.29210    0.00000
    7     -0.60421    0.00000

Gap: 1.194 eV
Transition (v -> c):
  (s=0, k=0, n=2, [0.00, 0.00, 0.00]) -> (s=0, k=0, n=3, [0.00, 0.00, 0.00])

Forces in eV/Ang:
  0 Na    0.00564   -0.00482    0.00128
  1 Na   -0.00537    0.00458   -0.00266
  2 Na   -0.00124    0.00036    0.00110
  3 Na   -0.00184   -0.00031   -0.00261
  4 Na   -0.00404    0.00281    0.00202
  5 Na    0.00687   -0.00260    0.00109

Timing:                                      incl.     excl.
-------------------------------------------------------------------
Density initialized from wave functions:     0.904     0.904   0.2% |
 Symmetrize density:                         0.000     0.000   0.0% |
Forces:                                      7.593     7.593   2.1% ||
Hamiltonian:                                 8.772     0.028   0.0% |
 Atomic:                                     1.305     0.006   0.0% |
  XC Correction:                             1.300     1.300   0.4% |
 Calculate atomic Hamiltonians:              0.781     0.781   0.2% |
 Communicate:                                0.000     0.000   0.0% |
 Initialize Hamiltonian:                     0.000     0.000   0.0% |
 Poisson:                                    0.061     0.061   0.0% |
 XC 3D grid:                                 6.596     6.596   1.8% ||
LCAO initialization:                         0.192     0.021   0.0% |
 LCAO eigensolver:                           0.066     0.001   0.0% |
  Calculate projections:                     0.000     0.000   0.0% |
  DenseAtomicCorrection:                     0.000     0.000   0.0% |
  Distribute overlap matrix:                 0.000     0.000   0.0% |
  Orbital Layouts:                           0.001     0.001   0.0% |
  Potential matrix:                          0.064     0.064   0.0% |
 LCAO to grid:                               0.078     0.078   0.0% |
 Set positions (LCAO WFS):                   0.028     0.005   0.0% |
  Basic WFS set positions:                   0.000     0.000   0.0% |
  Basis functions set positions:             0.000     0.000   0.0% |
  P tci:                                     0.013     0.013   0.0% |
  ST tci:                                    0.004     0.004   0.0% |
  mktci:                                     0.005     0.005   0.0% |
PWDescriptor:                                0.022     0.022   0.0% |
Redistribute:                                0.003     0.003   0.0% |
SCF-cycle:                                 158.154     0.037   0.0% |
 Davidson:                                  14.777     2.912   0.8% |
  Apply H:                                   2.624     2.499   0.7% |
   HMM T:                                    0.125     0.125   0.0% |
  Subspace diag:                             2.943     0.011   0.0% |
   calc_h_matrix:                            2.730     0.098   0.0% |
    Apply H:                                 2.632     2.501   0.7% |
     HMM T:                                  0.131     0.131   0.0% |
   diagonalize:                              0.020     0.020   0.0% |
   rotate_psi:                               0.180     0.180   0.0% |
  calc. matrices:                            5.896     0.656   0.2% |
   Apply H:                                  5.240     4.985   1.4% ||
    HMM T:                                   0.254     0.254   0.1% |
  diagonalize:                               0.051     0.051   0.0% |
  rotate_psi:                                0.350     0.350   0.1% |
 Density:                                   18.476     0.002   0.0% |
  Atomic density matrices:                   0.074     0.074   0.0% |
  Mix:                                      17.042    17.042   4.6% |-|
  Multipole moments:                         0.019     0.019   0.0% |
  Pseudo density:                            1.339     1.337   0.4% |
   Symmetrize density:                       0.002     0.002   0.0% |
 Hamiltonian:                              124.813     0.395   0.1% |
  Atomic:                                   18.366     0.080   0.0% |
   XC Correction:                           18.286    18.286   5.0% |-|
  Calculate atomic Hamiltonians:            11.842    11.842   3.2% ||
  Communicate:                               0.001     0.001   0.0% |
  Poisson:                                   0.832     0.832   0.2% |
  XC 3D grid:                               93.378    93.378  25.5% |---------|
 Orthonormalize:                             0.051     0.001   0.0% |
  calc_s_matrix:                             0.006     0.006   0.0% |
  inverse-cholesky:                          0.002     0.002   0.0% |
  projections:                               0.034     0.034   0.0% |
  rotate_psi_s:                              0.008     0.008   0.0% |
Set symmetry:                                0.001     0.001   0.0% |
Other:                                     191.143   191.143  52.1% |--------------------|
-------------------------------------------------------------------
Total:                                               366.783 100.0%

Memory usage: 820.60 MiB
Date: Tue Feb 18 01:56:03 2020
