
  ___ ___ ___ _ _ _  
 |   |   |_  | | | | 
 | | | | | . | | | | 
 |__ |  _|___|_____|  19.8.1
 |___|_|             

User:   hallborn@hebbe01-1
Date:   Tue Feb 18 01:25:32 2020
Arch:   x86_64
Pid:    25553
Python: 3.7.2
gpaw:   /apps/Hebbe7/software/MPI/intel/2019.1.144-GCC-8.2.0-2.31.1/impi/2018.4.274/GPAW/19.8.1-Python-3.7.2/lib/python3.7/site-packages/gpaw
_gpaw:  /apps/Hebbe7/software/MPI/intel/2019.1.144-GCC-8.2.0-2.31.1/impi/2018.4.274/GPAW/19.8.1-Python-3.7.2/bin/
        gpaw-python
ase:    /apps/Hebbe7/software/MPI/intel/2019.1.144-GCC-8.2.0-2.31.1/impi/2018.4.274/ASE/3.18.0-Python-3.7.2/lib/python3.7/site-packages/ase (version 3.18.0)
numpy:  /apps/Hebbe7/software/MPI/intel/2019.1.144-GCC-8.2.0-2.31.1/impi/2018.4.274/SciPy-bundle/2019.03/lib/python3.7/site-packages/numpy (version 1.16.2)
scipy:  /apps/Hebbe7/software/MPI/intel/2019.1.144-GCC-8.2.0-2.31.1/impi/2018.4.274/SciPy-bundle/2019.03/lib/python3.7/site-packages/scipy (version 1.2.1)
libxc:  4.3.4
units:  Angstrom and eV
cores:  1

Input parameters:
  basis: dzp
  h: 0.25
  mode: lcao
  setups: {Na: paw}

System changes: positions, numbers, cell, pbc, initial_charges, initial_magmoms 

Initialize ...

Na-setup:
  name: Sodium
  id: 74d681ec425db66acd6a232eb07f04e6
  Z: 11
  valence: 7
  core: 4
  charge: 0.0
  file: /apps/Common/Core/GPAW-setups/0.9.20000/Na.LDA.gz
  compensation charges: gauss, rc=0.37, lmax=2
  cutoffs: 2.17(filt), 2.59(core),
  valence states:
                energy  radius
    3s(1.00)    -2.819   1.201
    2p(6.00)   -28.826   1.217
    3p(0.00)    -0.774   1.217
    *s          24.392   1.201
    *d           0.000   1.238

  LCAO basis set for Na:
    Name: dzp
    File: /apps/Common/Core/GPAW-setups/0.9.20000/Na.dzp.basis.gz
    Number of radial functions: 7
    Number of spherical harmonics: 17
      l=0, rc=11.4062 Bohr: 3s-sz confined orbital
      l=1, rc=3.6719 Bohr: 2p-sz confined orbital
      l=1, rc=15.9375 Bohr: 3p-sz confined orbital
      l=0, rc=6.9531 Bohr: 3s-dz split-valence wave
      l=1, rc=2.4219 Bohr: 2p-dz split-valence wave
      l=1, rc=10.0469 Bohr: 3p-dz split-valence wave
      l=1, rc=11.4062 Bohr: p-type Gaussian polarization

Reference energy: -26392.251266

Spin-paired calculation

Occupation numbers:
  Fermi-Dirac: width=0.0000 eV

Convergence criteria:
  Maximum total energy change: 0.0005 eV / electron
  Maximum integral of absolute density change: 0.0001 electrons
  Maximum integral of absolute eigenstate change: 4e-08 eV^2
  Maximum number of iterations: 333

Symmetries present (total): 1

  ( 1  0  0)
  ( 0  1  0)
  ( 0  0  1)

1 k-point (Gamma)
1 k-point in the irreducible part of the Brillouin zone
       k-points in crystal coordinates                weights
   0:     0.00000000    0.00000000    0.00000000          1/1

Wave functions: LCAO
  Diagonalizer: Serial LAPACK
  Atomic Correction: dense with blas
  Datatype: float
 

Eigensolver
   LCAO using direct dense diagonalizer 

Densities:
  Coarse grid: 64*64*64 grid
  Fine grid: 128*128*128 grid
  Total Charge: 0.000000 

Density mixing:
  Method: separate
  Backend: pulay
  Linear mixing parameter: 0.25
  Mixing with 3 old densities
  No damping of long wave oscillations 

Hamiltonian:
  XC and Coulomb potentials evaluated on a 128*128*128 grid
  Using the LDA Exchange-Correlation functional
  Interpolation: tri-quintic (5. degree polynomial)
  Poisson solver: FastPoissonSolver using
    6*3+1=19 point O(h^6) finite-difference Laplacian stencil;
    FFT axes: [];
    FST axes: [0, 1, 2].
 

Memory estimate:
  Process memory now: 277.01 MiB
  Calculator: 149.51 MiB
    Density: 75.78 MiB
      Arrays: 50.70 MiB
      Localized functions: 13.63 MiB
      Mixer: 11.45 MiB
    Hamiltonian: 34.17 MiB
      Arrays: 33.16 MiB
      XC: 0.00 MiB
      Poisson: 0.00 MiB
      vbar: 1.00 MiB
    Wavefunctions: 39.56 MiB
      C [qnM]: 0.02 MiB
      S, T [2 x qmm]: 0.16 MiB
      P [aqMi]: 0.01 MiB
      BasisFunctions: 39.37 MiB
      Eigensolver: 0.00 MiB

Total number of cores used: 1

Number of atoms: 6
Number of atomic orbitals: 102
Number of bands in calculation: 30
Bands to converge: occupied states only
Number of valence electrons: 42

... initialized

Initializing position-dependent things.

Density initialized from atomic densities
           .--------------------------------------.  
          /|                                      |  
         / |                                      |  
        /  |                                      |  
       /   |                                      |  
      /    |                                      |  
     /     |                                      |  
    /      |                                      |  
   /       |                                      |  
  /        |                                      |  
 *         |           Na                         |  
 |         |                                      |  
 |         |                Na                    |  
 |         |                                      |  
 |         |            Na                        |  
 |         |                    Na                |  
 |         |                                      |  
 |         |                Na                    |  
 |         |                                      |  
 |         |             Na                       |  
 |         .--------------------------------------.  
 |        /                                      /   
 |       /                                      /    
 |      /                                      /     
 |     /                                      /      
 |    /                                      /       
 |   /                                      /        
 |  /                                      /         
 | /                                      /          
 |/                                      /           
 *--------------------------------------*            

Positions:
   0 Na    11.424955    5.046215    9.661160    ( 0.0000,  0.0000,  0.0000)
   1 Na     9.091214    7.135542   10.719357    ( 0.0000,  0.0000,  0.0000)
   2 Na     6.710298    9.263471   11.516303    ( 0.0000,  0.0000,  0.0000)
   3 Na     7.680133    8.011559    5.125248    ( 0.0000,  0.0000,  0.0000)
   4 Na     9.624253    6.463545    7.292195    ( 0.0000,  0.0000,  0.0000)
   5 Na     7.055205    8.690646    8.283979    ( 0.0000,  0.0000,  0.0000)

Unit cell:
           periodic     x           y           z      points  spacing
  1. axis:    no    16.000000    0.000000    0.000000    64     0.2500
  2. axis:    no     0.000000   16.000000    0.000000    64     0.2500
  3. axis:    no     0.000000    0.000000   16.000000    64     0.2500

  Lengths:  16.000000  16.000000  16.000000
  Angles:   90.000000  90.000000  90.000000

Effective grid spacing dv^(1/3) = 0.2500

                     log10-error:    total        iterations:
           time      wfs    density  energy       fermi  poisson
iter:   1  01:25:36          +inf    -5.388259    0      1      
iter:   2  01:25:38         -1.32    -5.126499    0      1      
iter:   3  01:25:39         -1.58    -5.067400    0      1      
iter:   4  01:25:41         -1.96    -5.059958    0      1      
iter:   5  01:25:42         -2.65    -5.059903    0      1      
iter:   6  01:25:43         -2.94    -5.059913    0      1      
iter:   7  01:25:45         -3.10    -5.059914    0      1      
iter:   8  01:25:46         -3.94    -5.059910    0      1      
iter:   9  01:25:48         -4.12    -5.059907    0      1      

Converged after 9 iterations.

Dipole moment: (0.006704, 0.000665, 0.007125) |e|*Ang

Energy contributions relative to reference atoms: (reference = -26392.251266)

Kinetic:        +10.827267
Potential:       -9.845596
External:        +0.000000
XC:              -6.095591
Entropy (-ST):   +0.000000
Local:           +0.054013
--------------------------
Free energy:     -5.059907
Extrapolated:    -5.059907

Fermi level: -2.46412

 Band  Eigenvalues  Occupancy
    0    -28.01899    2.00000
    1    -28.01825    2.00000
    2    -28.01707    2.00000
    3    -28.01526    2.00000
    4    -28.01382    2.00000
    5    -28.01181    2.00000
    6    -28.01173    2.00000
    7    -28.01013    2.00000
    8    -28.00722    2.00000
    9    -27.90199    2.00000
   10    -27.88790    2.00000
   11    -27.88559    2.00000
   12    -27.88485    2.00000
   13    -27.88417    2.00000
   14    -27.88324    2.00000
   15    -27.85717    2.00000
   16    -27.85627    2.00000
   17    -27.85163    2.00000
   18     -4.09504    2.00000
   19     -3.10866    2.00000
   20     -3.10721    2.00000
   21     -1.82103    0.00000
   22     -1.72621    0.00000
   23     -1.72450    0.00000
   24     -1.49593    0.00000
   25     -0.69707    0.00000
   26     -0.69352    0.00000
   27     -0.69018    0.00000
   28     -0.68405    0.00000
   29     -0.55238    0.00000

Gap: 1.286 eV
Transition (v -> c):
  (s=0, k=0, n=20, [0.00, 0.00, 0.00]) -> (s=0, k=0, n=21, [0.00, 0.00, 0.00])

Forces in eV/Ang:
  0 Na    0.00142   -0.00117    0.00324
  1 Na   -0.00117   -0.00125   -0.02335
  2 Na   -0.00323    0.00233    0.00191
  3 Na   -0.00001    0.00008   -0.00860
  4 Na   -0.01322    0.01243    0.01578
  5 Na    0.01744   -0.01097    0.00678

System changes: positions 

Initializing position-dependent things.

Density initialized from wave functions
           .--------------------------------------.  
          /|                                      |  
         / |                                      |  
        /  |                                      |  
       /   |                                      |  
      /    |                                      |  
     /     |                                      |  
    /      |                                      |  
   /       |                                      |  
  /        |                                      |  
 *         |           Na                         |  
 |         |                                      |  
 |         |                Na                    |  
 |         |                                      |  
 |         |            Na                        |  
 |         |                    Na                |  
 |         |                                      |  
 |         |                Na                    |  
 |         |                                      |  
 |         |             Na                       |  
 |         .--------------------------------------.  
 |        /                                      /   
 |       /                                      /    
 |      /                                      /     
 |     /                                      /      
 |    /                                      /       
 |   /                                      /        
 |  /                                      /         
 | /                                      /          
 |/                                      /           
 *--------------------------------------*            

Positions:
   0 Na    11.424975    5.046198    9.661206    ( 0.0000,  0.0000,  0.0000)
   1 Na     9.091197    7.135524   10.719024    ( 0.0000,  0.0000,  0.0000)
   2 Na     6.710252    9.263504   11.516330    ( 0.0000,  0.0000,  0.0000)
   3 Na     7.680133    8.011560    5.125125    ( 0.0000,  0.0000,  0.0000)
   4 Na     9.624065    6.463722    7.292421    ( 0.0000,  0.0000,  0.0000)
   5 Na     7.055454    8.690489    8.284076    ( 0.0000,  0.0000,  0.0000)

Unit cell:
           periodic     x           y           z      points  spacing
  1. axis:    no    16.000000    0.000000    0.000000    64     0.2500
  2. axis:    no     0.000000   16.000000    0.000000    64     0.2500
  3. axis:    no     0.000000    0.000000   16.000000    64     0.2500

  Lengths:  16.000000  16.000000  16.000000
  Angles:   90.000000  90.000000  90.000000

Effective grid spacing dv^(1/3) = 0.2500

                     log10-error:    total        iterations:
           time      wfs    density  energy       fermi  poisson
iter:   1  01:25:51          +inf    -5.059931    0      1      
iter:   2  01:25:52         -4.84    -5.059931    0      1      
iter:   3  01:25:53         -5.21    -5.059931    0      1      

Converged after 3 iterations.

Dipole moment: (0.006763, 0.000669, 0.007123) |e|*Ang

Energy contributions relative to reference atoms: (reference = -26392.251266)

Kinetic:        +10.818342
Potential:       -9.837255
External:        +0.000000
XC:              -6.095070
Entropy (-ST):   +0.000000
Local:           +0.054052
--------------------------
Free energy:     -5.059931
Extrapolated:    -5.059931

Fermi level: -2.46413

 Band  Eigenvalues  Occupancy
    0    -28.01934    2.00000
    1    -28.01858    2.00000
    2    -28.01738    2.00000
    3    -28.01559    2.00000
    4    -28.01416    2.00000
    5    -28.01215    2.00000
    6    -28.01209    2.00000
    7    -28.01044    2.00000
    8    -28.00756    2.00000
    9    -27.90173    2.00000
   10    -27.88761    2.00000
   11    -27.88530    2.00000
   12    -27.88455    2.00000
   13    -27.88389    2.00000
   14    -27.88295    2.00000
   15    -27.85688    2.00000
   16    -27.85597    2.00000
   17    -27.85131    2.00000
   18     -4.09508    2.00000
   19     -3.10857    2.00000
   20     -3.10713    2.00000
   21     -1.82114    0.00000
   22     -1.72601    0.00000
   23     -1.72432    0.00000
   24     -1.49592    0.00000
   25     -0.69703    0.00000
   26     -0.69351    0.00000
   27     -0.69017    0.00000
   28     -0.68403    0.00000
   29     -0.55227    0.00000

Gap: 1.286 eV
Transition (v -> c):
  (s=0, k=0, n=20, [0.00, 0.00, 0.00]) -> (s=0, k=0, n=21, [0.00, 0.00, 0.00])

Forces in eV/Ang:
  0 Na    0.00106   -0.00089    0.00307
  1 Na   -0.00123   -0.00120   -0.02310
  2 Na   -0.00296    0.00200    0.00153
  3 Na    0.00008   -0.00003   -0.00806
  4 Na   -0.01311    0.01230    0.01561
  5 Na    0.01728   -0.01088    0.00666

System changes: positions 

Initializing position-dependent things.

Density initialized from wave functions
           .--------------------------------------.  
          /|                                      |  
         / |                                      |  
        /  |                                      |  
       /   |                                      |  
      /    |                                      |  
     /     |                                      |  
    /      |                                      |  
   /       |                                      |  
  /        |                                      |  
 *         |           Na                         |  
 |         |                                      |  
 |         |                Na                    |  
 |         |                                      |  
 |         |            Na                        |  
 |         |                    Na                |  
 |         |                                      |  
 |         |                Na                    |  
 |         |                                      |  
 |         |             Na                       |  
 |         .--------------------------------------.  
 |        /                                      /   
 |       /                                      /    
 |      /                                      /     
 |     /                                      /      
 |    /                                      /       
 |   /                                      /        
 |  /                                      /         
 | /                                      /          
 |/                                      /           
 *--------------------------------------*            

Positions:
   0 Na    11.426064    5.045284    9.664341    ( 0.0000,  0.0000,  0.0000)
   1 Na     9.089950    7.134301   10.695502    ( 0.0000,  0.0000,  0.0000)
   2 Na     6.707226    9.265553   11.517900    ( 0.0000,  0.0000,  0.0000)
   3 Na     7.680212    8.011536    5.116910    ( 0.0000,  0.0000,  0.0000)
   4 Na     9.610712    6.476246    7.308317    ( 0.0000,  0.0000,  0.0000)
   5 Na     7.073043    8.679411    8.290859    ( 0.0000,  0.0000,  0.0000)

Unit cell:
           periodic     x           y           z      points  spacing
  1. axis:    no    16.000000    0.000000    0.000000    64     0.2500
  2. axis:    no     0.000000   16.000000    0.000000    64     0.2500
  3. axis:    no     0.000000    0.000000   16.000000    64     0.2500

  Lengths:  16.000000  16.000000  16.000000
  Angles:   90.000000  90.000000  90.000000

Effective grid spacing dv^(1/3) = 0.2500

                     log10-error:    total        iterations:
           time      wfs    density  energy       fermi  poisson
iter:   1  01:25:56          +inf    -5.060863    0      1      
iter:   2  01:25:58         -3.30    -5.060836    0      1      
iter:   3  01:25:59         -3.48    -5.060825    0      1      
iter:   4  01:26:00         -3.86    -5.060824    0      1      
iter:   5  01:26:02         -4.28    -5.060823    0      1      

Converged after 5 iterations.

Dipole moment: (0.007818, -0.000399, 0.006043) |e|*Ang

Energy contributions relative to reference atoms: (reference = -26392.251266)

Kinetic:        +10.966615
Potential:       -9.942496
External:        +0.000000
XC:              -6.138689
Entropy (-ST):   +0.000000
Local:           +0.053746
--------------------------
Free energy:     -5.060823
Extrapolated:    -5.060823

Fermi level: -2.46760

 Band  Eigenvalues  Occupancy
    0    -28.02019    2.00000
    1    -28.01904    2.00000
    2    -28.01704    2.00000
    3    -28.01549    2.00000
    4    -28.01494    2.00000
    5    -28.01321    2.00000
    6    -28.01282    2.00000
    7    -28.00984    2.00000
    8    -28.00898    2.00000
    9    -27.89645    2.00000
   10    -27.87974    2.00000
   11    -27.87725    2.00000
   12    -27.87656    2.00000
   13    -27.87645    2.00000
   14    -27.87561    2.00000
   15    -27.84840    2.00000
   16    -27.84775    2.00000
   17    -27.84220    2.00000
   18     -4.10430    2.00000
   19     -3.10622    2.00000
   20     -3.10363    2.00000
   21     -1.83158    0.00000
   22     -1.71424    0.00000
   23     -1.71363    0.00000
   24     -1.50021    0.00000
   25     -0.69688    0.00000
   26     -0.69635    0.00000
   27     -0.68880    0.00000
   28     -0.68390    0.00000
   29     -0.54325    0.00000

Gap: 1.272 eV
Transition (v -> c):
  (s=0, k=0, n=20, [0.00, 0.00, 0.00]) -> (s=0, k=0, n=21, [0.00, 0.00, 0.00])

Forces in eV/Ang:
  0 Na    0.00185   -0.00215    0.00032
  1 Na   -0.00130    0.00220   -0.00084
  2 Na    0.00098   -0.00154   -0.00043
  3 Na    0.00102   -0.00054   -0.00187
  4 Na   -0.00283    0.00119   -0.00186
  5 Na    0.00383    0.00004   -0.00163

Timing:                                       incl.     excl.
--------------------------------------------------------------------
Basic WFS set positions:                      0.002     0.001   0.0% |
 Redistribute:                                0.001     0.001   0.0% |
Basis functions set positions:                0.189     0.189   0.2% |
Forces:                                       4.193     0.206   0.2% |
 LCAO forces:                                 3.987     0.002   0.0% |
  Atomic Hamiltonian force:                   0.006     0.006   0.0% |
  Initial:                                    0.001     0.000   0.0% |
   Get density matrix:                        0.001     0.001   0.0% |
  Paw correction:                             0.006     0.006   0.0% |
  Potential:                                  3.860     3.860   3.2% ||
  TCI derivative:                             0.113     0.113   0.1% |
  Wait for sum:                               0.000     0.000   0.0% |
LCAO WFS Initialize:                          3.005     0.097   0.1% |
 Density initialized from wave functions:     0.762     0.155   0.1% |
  Calculate density matrix:                   0.000     0.000   0.0% |
  Construct density:                          0.607     0.607   0.5% |
  Symmetrize density:                         0.000     0.000   0.0% |
 Hamiltonian:                                 2.145     0.001   0.0% |
  Atomic:                                     0.267     0.004   0.0% |
   XC Correction:                             0.264     0.264   0.2% |
  Calculate atomic Hamiltonians:              0.016     0.016   0.0% |
  Communicate:                                0.000     0.000   0.0% |
  Hartree integrate/restrict:                 0.126     0.126   0.1% |
  Initialize Hamiltonian:                     0.000     0.000   0.0% |
  Poisson:                                    0.744     0.046   0.0% |
   Communicate bwd 0:                         0.087     0.087   0.1% |
   Communicate bwd 1:                         0.056     0.056   0.0% |
   Communicate fwd 0:                         0.080     0.080   0.1% |
   Communicate fwd 1:                         0.089     0.089   0.1% |
   fft:                                       0.115     0.115   0.1% |
   fft2:                                      0.272     0.272   0.2% |
  XC 3D grid:                                 0.971     0.971   0.8% |
  vbar:                                       0.021     0.021   0.0% |
P tci:                                        0.067     0.067   0.1% |
Redistribute:                                 0.000     0.000   0.0% |
SCF-cycle:                                   20.311     0.007   0.0% |
 Density:                                     5.355     0.000   0.0% |
  Atomic density matrices:                    0.016     0.016   0.0% |
  Mix:                                        1.051     1.051   0.9% |
  Multipole moments:                          0.004     0.004   0.0% |
  Normalize:                                  0.005     0.005   0.0% |
  Pseudo density:                             4.279     0.019   0.0% |
   Calculate density matrix:                  0.001     0.001   0.0% |
   Construct density:                         4.258     4.258   3.6% ||
   Symmetrize density:                        0.001     0.001   0.0% |
 Hamiltonian:                                 9.949     0.002   0.0% |
  Atomic:                                     1.247     0.017   0.0% |
   XC Correction:                             1.230     1.230   1.0% |
  Calculate atomic Hamiltonians:              0.076     0.076   0.1% |
  Communicate:                                0.000     0.000   0.0% |
  Hartree integrate/restrict:                 0.613     0.613   0.5% |
  Poisson:                                    3.445     0.195   0.2% |
   Communicate bwd 0:                         0.406     0.406   0.3% |
   Communicate bwd 1:                         0.258     0.258   0.2% |
   Communicate fwd 0:                         0.370     0.370   0.3% |
   Communicate fwd 1:                         0.419     0.419   0.4% |
   fft:                                       0.533     0.533   0.4% |
   fft2:                                      1.263     1.263   1.1% |
  XC 3D grid:                                 4.483     4.483   3.7% ||
  vbar:                                       0.082     0.082   0.1% |
 LCAO eigensolver:                            5.001     0.003   0.0% |
  Calculate projections:                      0.002     0.002   0.0% |
  DenseAtomicCorrection:                      0.009     0.009   0.0% |
  Distribute overlap matrix:                  0.001     0.001   0.0% |
  Orbital Layouts:                            0.035     0.035   0.0% |
  Potential matrix:                           4.952     4.952   4.1% |-|
ST tci:                                       0.025     0.025   0.0% |
Set symmetry:                                 0.001     0.001   0.0% |
TCI: Evaluate splines:                        0.127     0.127   0.1% |
mktci:                                        0.004     0.004   0.0% |
Other:                                       91.620    91.620  76.6% |------------------------------|
--------------------------------------------------------------------
Total:                                                119.545 100.0%

Memory usage: 625.23 MiB
Date: Tue Feb 18 01:27:32 2020
