
  ___ ___ ___ _ _ _  
 |   |   |_  | | | | 
 | | | | | . | | | | 
 |__ |  _|___|_____|  19.8.1
 |___|_|             

User:   hallborn@hebbe31-4
Date:   Mon Feb 17 18:09:56 2020
Arch:   x86_64
Pid:    12878
Python: 3.7.2
gpaw:   /apps/Hebbe7/software/MPI/intel/2019.1.144-GCC-8.2.0-2.31.1/impi/2018.4.274/GPAW/19.8.1-Python-3.7.2/lib/python3.7/site-packages/gpaw
_gpaw:  /apps/Hebbe7/software/MPI/intel/2019.1.144-GCC-8.2.0-2.31.1/impi/2018.4.274/GPAW/19.8.1-Python-3.7.2/bin/
        gpaw-python
ase:    /apps/Hebbe7/software/MPI/intel/2019.1.144-GCC-8.2.0-2.31.1/impi/2018.4.274/ASE/3.18.0-Python-3.7.2/lib/python3.7/site-packages/ase (version 3.18.0)
numpy:  /apps/Hebbe7/software/MPI/intel/2019.1.144-GCC-8.2.0-2.31.1/impi/2018.4.274/SciPy-bundle/2019.03/lib/python3.7/site-packages/numpy (version 1.16.2)
scipy:  /apps/Hebbe7/software/MPI/intel/2019.1.144-GCC-8.2.0-2.31.1/impi/2018.4.274/SciPy-bundle/2019.03/lib/python3.7/site-packages/scipy (version 1.2.1)
libxc:  4.3.4
units:  Angstrom and eV
cores:  1

Input parameters:
  basis: dzp
  mode: lcao
  setups: {Na: 1}

System changes: positions, numbers, cell, pbc, initial_charges, initial_magmoms 

Initialize ...

Na-setup:
  name: Sodium
  id: fa5c50181d04022fed15b2593599c257
  Z: 11
  valence: 1
  core: 10
  charge: 0.0
  file: /apps/Common/Core/GPAW-setups/0.9.20000/Na.1.LDA.gz
  compensation charges: gauss, rc=0.43, lmax=2
  cutoffs: 2.36(filt), 3.60(core),
  valence states:
                energy  radius
    3s(1.00)    -2.819   1.349
    3p(0.00)    -0.774   1.349
    *s          24.392   1.349

  LCAO basis set for Na:
    Name: 1.dzp
    File: /apps/Common/Core/GPAW-setups/0.9.20000/Na.1.dzp.basis.gz
    Number of radial functions: 3
    Number of spherical harmonics: 5
      l=0, rc=11.7656 Bohr: 3s-sz confined orbital
      l=0, rc=7.1094 Bohr: 3s-dz split-valence wave
      l=1, rc=11.7656 Bohr: p-type Gaussian polarization

Reference energy: -26392.251304

Spin-paired calculation

Occupation numbers:
  Fermi-Dirac: width=0.0000 eV

Convergence criteria:
  Maximum total energy change: 0.0005 eV / electron
  Maximum integral of absolute density change: 0.0001 electrons
  Maximum integral of absolute eigenstate change: 4e-08 eV^2
  Maximum number of iterations: 333

Symmetries present (total): 1

  ( 1  0  0)
  ( 0  1  0)
  ( 0  0  1)

1 k-point (Gamma)
1 k-point in the irreducible part of the Brillouin zone
       k-points in crystal coordinates                weights
   0:     0.00000000    0.00000000    0.00000000          1/1

Wave functions: LCAO
  Diagonalizer: Serial LAPACK
  Atomic Correction: dense with blas
  Datatype: float
 

Eigensolver
   LCAO using direct dense diagonalizer 

Densities:
  Coarse grid: 80*80*80 grid
  Fine grid: 160*160*160 grid
  Total Charge: 0.000000 

Density mixing:
  Method: separate
  Backend: pulay
  Linear mixing parameter: 0.25
  Mixing with 3 old densities
  No damping of long wave oscillations 

Hamiltonian:
  XC and Coulomb potentials evaluated on a 160*160*160 grid
  Using the LDA Exchange-Correlation functional
  Interpolation: tri-quintic (5. degree polynomial)
  Poisson solver: FastPoissonSolver using
    6*3+1=19 point O(h^6) finite-difference Laplacian stencil;
    FFT axes: [];
    FST axes: [0, 1, 2].
 

Memory estimate:
  Process memory now: 826.57 MiB
  Calculator: 249.19 MiB
    Density: 157.14 MiB
      Arrays: 99.53 MiB
      Localized functions: 35.04 MiB
      Mixer: 22.57 MiB
    Hamiltonian: 67.63 MiB
      Arrays: 65.10 MiB
      XC: 0.00 MiB
      Poisson: 0.00 MiB
      vbar: 2.53 MiB
    Wavefunctions: 24.43 MiB
      C [qnM]: 0.00 MiB
      S, T [2 x qmm]: 0.01 MiB
      P [aqMi]: 0.00 MiB
      BasisFunctions: 24.42 MiB
      Eigensolver: 0.00 MiB

Total number of cores used: 1

Number of atoms: 6
Number of atomic orbitals: 30
Number of bands in calculation: 8
Bands to converge: occupied states only
Number of valence electrons: 6

... initialized

Initializing position-dependent things.

Density initialized from atomic densities
           .--------------------------------------.  
          /|                                      |  
         / |                                      |  
        /  |                                      |  
       /   |                                      |  
      /    |                                      |  
     /     |                                      |  
    /      |                                      |  
   /       |                                      |  
  /        |                                      |  
 *         |                                      |  
 |         |          Na                          |  
 |         |                                      |  
 |         |       Na      Na                     |  
 |         |                Na                    |  
 |         |                                      |  
 |         |                                      |  
 |         |             Na   Na                  |  
 |         |                                      |  
 |         |                                      |  
 |         .--------------------------------------.  
 |        /                                      /   
 |       /                                      /    
 |      /                                      /     
 |     /                                      /      
 |    /                                      /       
 |   /                                      /        
 |  /                                      /         
 | /                                      /          
 |/                                      /           
 *--------------------------------------*            

Positions:
   0 Na     8.210231    9.489933    8.656516    ( 0.0000,  0.0000,  0.0000)
   1 Na     6.417931    8.101846   10.968460    ( 0.0000,  0.0000,  0.0000)
   2 Na     5.009862    9.947279    8.321395    ( 0.0000,  0.0000,  0.0000)
   3 Na     7.211492    9.790525    5.577356    ( 0.0000,  0.0000,  0.0000)
   4 Na     9.992557    7.848605    6.505352    ( 0.0000,  0.0000,  0.0000)
   5 Na     9.477264    6.754058    9.822530    ( 0.0000,  0.0000,  0.0000)

Unit cell:
           periodic     x           y           z      points  spacing
  1. axis:    no    16.000000    0.000000    0.000000    80     0.2000
  2. axis:    no     0.000000   16.000000    0.000000    80     0.2000
  3. axis:    no     0.000000    0.000000   16.000000    80     0.2000

  Lengths:  16.000000  16.000000  16.000000
  Angles:   90.000000  90.000000  90.000000

Effective grid spacing dv^(1/3) = 0.2000

                     log10-error:    total        iterations:
           time      wfs    density  energy       fermi  poisson
iter:   1  18:10:05          +inf    -5.129773    0      1      
iter:   2  18:10:07         -0.62    -4.966807    0      1      
iter:   3  18:10:09         -0.84    -4.894986    0      1      
iter:   4  18:10:10         -1.39    -4.890948    0      1      
iter:   5  18:10:12         -2.06    -4.890914    0      1      
iter:   6  18:10:14         -2.22    -4.890882    0      1      
iter:   7  18:10:16         -2.95    -4.890880    0      1      
iter:   8  18:10:18         -3.26    -4.890880    0      1      
iter:   9  18:10:20         -3.49    -4.890880    0      1      
iter:  10  18:10:22         -3.89    -4.890880    0      1      
iter:  11  18:10:24         -4.12    -4.890880    0      1      

Converged after 11 iterations.

Dipole moment: (0.062539, 0.106031, 0.046935) |e|*Ang

Energy contributions relative to reference atoms: (reference = -26392.251304)

Kinetic:        +20.459403
Potential:      -18.009622
External:        +0.000000
XC:              -7.370461
Entropy (-ST):   +0.000000
Local:           +0.029801
--------------------------
Free energy:     -4.890880
Extrapolated:    -4.890880

Fermi level: -2.40142

 Band  Eigenvalues  Occupancy
    0     -4.35147    2.00000
    1     -3.07573    2.00000
    2     -3.06696    2.00000
    3     -1.73588    0.00000
    4     -1.55559    0.00000
    5     -1.54778    0.00000
    6      1.91830    0.00000
    7      1.92149    0.00000

Gap: 1.331 eV
Transition (v -> c):
  (s=0, k=0, n=2, [0.00, 0.00, 0.00]) -> (s=0, k=0, n=3, [0.00, 0.00, 0.00])

Forces in eV/Ang:
  0 Na   -0.00143    0.01577   -0.00294
  1 Na   -0.00200   -0.00781    0.00340
  2 Na   -0.00172    0.00169   -0.00174
  3 Na   -0.00258    0.00266   -0.00207
  4 Na    0.00374   -0.00750   -0.00282
  5 Na    0.00498   -0.00566    0.00529

Timing:                              incl.     excl.
-----------------------------------------------------------
Basic WFS set positions:             0.000     0.000   0.0% |
Basis functions set positions:       0.058     0.058   0.2% |
Forces:                              0.818     0.178   0.6% |
 LCAO forces:                        0.639     0.000   0.0% |
  Atomic Hamiltonian force:          0.002     0.002   0.0% |
  Initial:                           0.000     0.000   0.0% |
   Get density matrix:               0.000     0.000   0.0% |
  Paw correction:                    0.001     0.001   0.0% |
  Potential:                         0.613     0.613   2.1% ||
  TCI derivative:                    0.022     0.022   0.1% |
  Wait for sum:                      0.000     0.000   0.0% |
LCAO WFS Initialize:                 1.695     0.216   0.7% |
 Hamiltonian:                        1.480     0.000   0.0% |
  Atomic:                            0.080     0.001   0.0% |
   XC Correction:                    0.079     0.079   0.3% |
  Calculate atomic Hamiltonians:     0.012     0.012   0.0% |
  Communicate:                       0.000     0.000   0.0% |
  Hartree integrate/restrict:        0.101     0.101   0.3% |
  Initialize Hamiltonian:            0.001     0.001   0.0% |
  Poisson:                           0.600     0.039   0.1% |
   Communicate bwd 0:                0.075     0.075   0.3% |
   Communicate bwd 1:                0.046     0.046   0.2% |
   Communicate fwd 0:                0.060     0.060   0.2% |
   Communicate fwd 1:                0.068     0.068   0.2% |
   fft:                              0.086     0.086   0.3% |
   fft2:                             0.227     0.227   0.8% |
  XC 3D grid:                        0.664     0.664   2.3% ||
  vbar:                              0.022     0.022   0.1% |
P tci:                               0.013     0.013   0.0% |
SCF-cycle:                          19.133     0.004   0.0% |
 Density:                            3.290     0.000   0.0% |
  Atomic density matrices:           0.010     0.010   0.0% |
  Mix:                               1.908     1.908   6.6% |--|
  Multipole moments:                 0.003     0.003   0.0% |
  Normalize:                         0.012     0.012   0.0% |
  Pseudo density:                    1.356     0.039   0.1% |
   Calculate density matrix:         0.001     0.001   0.0% |
   Construct density:                1.315     1.315   4.5% |-|
   Symmetrize density:               0.000     0.000   0.0% |
 Hamiltonian:                       14.528     0.002   0.0% |
  Atomic:                            0.801     0.011   0.0% |
   XC Correction:                    0.790     0.790   2.7% ||
  Calculate atomic Hamiltonians:     0.127     0.127   0.4% |
  Communicate:                       0.000     0.000   0.0% |
  Hartree integrate/restrict:        1.035     1.035   3.6% ||
  Poisson:                           5.894     0.310   1.1% |
   Communicate bwd 0:                0.722     0.722   2.5% ||
   Communicate bwd 1:                0.449     0.449   1.6% ||
   Communicate fwd 0:                0.612     0.612   2.1% ||
   Communicate fwd 1:                0.673     0.673   2.3% ||
   fft:                              0.865     0.865   3.0% ||
   fft2:                             2.263     2.263   7.8% |--|
  XC 3D grid:                        6.538     6.538  22.6% |--------|
  vbar:                              0.132     0.132   0.5% |
 LCAO eigensolver:                   1.310     0.002   0.0% |
  Calculate projections:             0.001     0.001   0.0% |
  DenseAtomicCorrection:             0.004     0.004   0.0% |
  Distribute overlap matrix:         0.000     0.000   0.0% |
  Orbital Layouts:                   0.004     0.004   0.0% |
  Potential matrix:                  1.300     1.300   4.5% |-|
ST tci:                              0.004     0.004   0.0% |
Set symmetry:                        0.001     0.001   0.0% |
TCI: Evaluate splines:               0.021     0.021   0.1% |
mktci:                               0.002     0.002   0.0% |
Other:                               7.182     7.182  24.8% |---------|
-----------------------------------------------------------
Total:                                        28.926 100.0%

Memory usage: 933.68 MiB
Date: Mon Feb 17 18:10:25 2020
