
  ___ ___ ___ _ _ _  
 |   |   |_  | | | | 
 | | | | | . | | | | 
 |__ |  _|___|_____|  19.8.1
 |___|_|             

User:   hallborn@hebbe07-8
Date:   Tue Feb 18 02:13:06 2020
Arch:   x86_64
Pid:    28808
Python: 3.7.2
gpaw:   /apps/Hebbe7/software/MPI/intel/2019.1.144-GCC-8.2.0-2.31.1/impi/2018.4.274/GPAW/19.8.1-Python-3.7.2/lib/python3.7/site-packages/gpaw
_gpaw:  /apps/Hebbe7/software/MPI/intel/2019.1.144-GCC-8.2.0-2.31.1/impi/2018.4.274/GPAW/19.8.1-Python-3.7.2/bin/
        gpaw-python
ase:    /apps/Hebbe7/software/MPI/intel/2019.1.144-GCC-8.2.0-2.31.1/impi/2018.4.274/ASE/3.18.0-Python-3.7.2/lib/python3.7/site-packages/ase (version 3.18.0)
numpy:  /apps/Hebbe7/software/MPI/intel/2019.1.144-GCC-8.2.0-2.31.1/impi/2018.4.274/SciPy-bundle/2019.03/lib/python3.7/site-packages/numpy (version 1.16.2)
scipy:  /apps/Hebbe7/software/MPI/intel/2019.1.144-GCC-8.2.0-2.31.1/impi/2018.4.274/SciPy-bundle/2019.03/lib/python3.7/site-packages/scipy (version 1.2.1)
libxc:  4.3.4
units:  Angstrom and eV
cores:  1

Input parameters:
  basis: dzp
  h: 0.25
  mode: {ecut: 200.0,
         gammacentered: False,
         name: pw}
  occupations: {name: fermi-dirac,
                width: 0.05}
  setups: {Na: 1}
  xc: PBE

System changes: positions, numbers, cell, pbc, initial_charges, initial_magmoms 

Initialize ...

Na-setup:
  name: Sodium
  id: 8dbce52902f3add137ce7d12431c9cac
  Z: 11
  valence: 1
  core: 10
  charge: 0.0
  file: /apps/Common/Core/GPAW-setups/0.9.20000/Na.1.PBE.gz
  compensation charges: gauss, rc=0.43, lmax=2
  cutoffs: 2.36(filt), 3.60(core),
  valence states:
                energy  radius
    3s(1.00)    -2.744   1.349
    3p(0.00)    -0.743   1.349
    *s          24.468   1.349

  LCAO basis set for Na:
    Name: 1.dzp
    File: /apps/Common/Core/GPAW-setups/0.9.20000/Na.1.dzp.basis.gz
    Number of radial functions: 3
    Number of spherical harmonics: 5
      l=0, rc=11.7656 Bohr: 3s-sz confined orbital
      l=0, rc=7.1094 Bohr: 3s-dz split-valence wave
      l=1, rc=11.7656 Bohr: p-type Gaussian polarization

Reference energy: -26511.662975

Spin-paired calculation

Occupation numbers:
  Fermi-Dirac: width=0.0500 eV

Convergence criteria:
  Maximum total energy change: 0.0005 eV / electron
  Maximum integral of absolute density change: 0.0001 electrons
  Maximum integral of absolute eigenstate change: 4e-08 eV^2
  Maximum number of iterations: 333

Symmetries present (total): 1

  ( 1  0  0)
  ( 0  1  0)
  ( 0  0  1)

1 k-point (Gamma)
1 k-point in the irreducible part of the Brillouin zone
       k-points in crystal coordinates                weights
   0:     0.00000000    0.00000000    0.00000000          1/1

Wave functions: Plane wave expansion
  Cutoff energy: 200.000 eV
  Number of coefficients: 26193 (reduced to 13097)
  Pulay-stress correction: 0.000000 eV/Ang^3 (de/decut=0.000000)
  Using FFTW library
  ScaLapack parameters: grid=1x1, blocksize=None
  Wavefunction extrapolation:
    Improved wavefunction reuse through dual PAW basis 

Eigensolver
   Davidson(niter=2, smin=None, normalize=True) 

Densities:
  Coarse grid: 64*64*64 grid
  Fine grid: 128*128*128 grid
  Total Charge: 0.000000 

Density mixing:
  Method: separate
  Backend: pulay
  Linear mixing parameter: 0.05
  Mixing with 5 old densities
  Damping of long wave oscillations: 50 

Hamiltonian:
  XC and Coulomb potentials evaluated on a 128*128*128 grid
  Using the PBE Exchange-Correlation functional
 

XC parameters: PBE with 2 nearest neighbor stencil

Memory estimate:
  Process memory now: 193.06 MiB
  Calculator: 168.55 MiB
    Density: 123.30 MiB
      Arrays: 52.00 MiB
      Localized functions: 51.30 MiB
      Mixer: 20.00 MiB
    Hamiltonian: 35.05 MiB
      Arrays: 34.00 MiB
      XC: 0.00 MiB
      Poisson: 0.00 MiB
      vbar: 1.05 MiB
    Wavefunctions: 10.20 MiB
      Arrays psit_nG: 1.60 MiB
      Eigensolver: 2.60 MiB
      Projections: 0.00 MiB
      Projectors: 0.70 MiB
      PW-descriptor: 5.29 MiB

Total number of cores used: 1

Number of atoms: 6
Number of atomic orbitals: 30
Number of bands in calculation: 8
Bands to converge: occupied states only
Number of valence electrons: 6

... initialized

Initializing position-dependent things.

Density initialized from atomic densities
Creating initial wave functions:
  8 bands from LCAO basis set

           .--------------------------------------.  
          /|                                      |  
         / |                                      |  
        /  |                                      |  
       /   |                                      |  
      /    |                                      |  
     /     |                                      |  
    /      |                                      |  
   /       |                                      |  
  /        |                                      |  
 *         |           Na                         |  
 |         |                                      |  
 |         |                Na                    |  
 |         |                                      |  
 |         |            Na                        |  
 |         |                    Na                |  
 |         |                                      |  
 |         |                Na                    |  
 |         |                                      |  
 |         |             Na                       |  
 |         .--------------------------------------.  
 |        /                                      /   
 |       /                                      /    
 |      /                                      /     
 |     /                                      /      
 |    /                                      /       
 |   /                                      /        
 |  /                                      /         
 | /                                      /          
 |/                                      /           
 *--------------------------------------*            

Positions:
   0 Na    11.424955    5.046215    9.661160    ( 0.0000,  0.0000,  0.0000)
   1 Na     9.091214    7.135542   10.719357    ( 0.0000,  0.0000,  0.0000)
   2 Na     6.710298    9.263471   11.516303    ( 0.0000,  0.0000,  0.0000)
   3 Na     7.680133    8.011559    5.125248    ( 0.0000,  0.0000,  0.0000)
   4 Na     9.624253    6.463545    7.292195    ( 0.0000,  0.0000,  0.0000)
   5 Na     7.055205    8.690646    8.283979    ( 0.0000,  0.0000,  0.0000)

Unit cell:
           periodic     x           y           z      points  spacing
  1. axis:    no    16.000000    0.000000    0.000000    64     0.2500
  2. axis:    no     0.000000   16.000000    0.000000    64     0.2500
  3. axis:    no     0.000000    0.000000   16.000000    64     0.2500

  Lengths:  16.000000  16.000000  16.000000
  Angles:   90.000000  90.000000  90.000000

Effective grid spacing dv^(1/3) = 0.2500

                     log10-error:    total        iterations:
           time      wfs    density  energy       fermi  poisson
iter:   1  02:13:11  +0.24   +inf    -5.093201    2             
iter:   2  02:13:13  -1.69  -0.49    -5.041172    3             
iter:   3  02:13:15  -1.97  -0.52    -4.850675    9             
iter:   4  02:13:18  -3.10  -0.90    -4.834141    4             
iter:   5  02:13:20  -3.09  -0.89    -4.828487    3             
iter:   6  02:13:22  -3.86  -1.36    -4.829229    2             
iter:   7  02:13:24  -4.46  -1.54    -4.830347    2             
iter:   8  02:13:27  -4.58  -1.78    -4.830929    2             
iter:   9  02:13:29  -5.30  -2.30    -4.830954    2             
iter:  10  02:13:31  -5.81  -2.52    -4.830950    2             
iter:  11  02:13:34  -6.68  -2.70    -4.830949    2             
iter:  12  02:13:36  -7.14  -2.77    -4.830952    1             
iter:  13  02:13:38  -6.64  -2.83    -4.830954    1             
iter:  14  02:13:40  -7.48  -3.04    -4.830955    1             
iter:  15  02:13:43  -7.62  -3.15    -4.830956    1             
iter:  16  02:13:45  -8.01  -3.31    -4.830956    1             
iter:  17  02:13:47  -8.11  -3.42    -4.830956    1             
iter:  18  02:13:49  -8.78  -3.58    -4.830956    1             
iter:  19  02:13:52  -8.73  -3.63    -4.830956    1             
iter:  20  02:13:54  -9.02  -3.70    -4.830956    1             
iter:  21  02:13:56  -9.12  -3.74    -4.830956    1             
iter:  22  02:13:58  -9.66  -3.75    -4.830956    1             
iter:  23  02:14:01  -9.49  -3.77    -4.830956    1             
iter:  24  02:14:03  -9.19  -3.83    -4.830956    1             
iter:  25  02:14:05  -8.82  -3.93    -4.830956    1             
iter:  26  02:14:08  -9.70  -4.07    -4.830956    1             

Converged after 26 iterations.

Dipole moment: (0.018522, -0.008673, -0.012117) |e|*Ang

Energy contributions relative to reference atoms: (reference = -26511.662975)

Kinetic:        +11.687868
Potential:      -10.665339
External:        +0.000000
XC:              -5.854451
Entropy (-ST):   -0.000017
Local:           +0.000974
--------------------------
Free energy:     -4.830965
Extrapolated:    -4.830956

Fermi level: -2.26755

 Band  Eigenvalues  Occupancy
    0     -3.89868    2.00000
    1     -2.90225    1.99999
    2     -2.89970    1.99999
    3     -1.66272    0.00001
    4     -1.53531    0.00000
    5     -1.51275    0.00000
    6     -1.33012    0.00000
    7     -0.56466    0.00000

Gap: 1.237 eV
Transition (v -> c):
  (s=0, k=0, n=2, [0.00, 0.00, 0.00]) -> (s=0, k=0, n=3, [0.00, 0.00, 0.00])

Forces in eV/Ang:
  0 Na    0.07651   -0.06465    0.02778
  1 Na    0.01696   -0.01209    0.03919
  2 Na   -0.05639    0.05432    0.07592
  3 Na   -0.02598    0.01547   -0.10390
  4 Na    0.02005   -0.01958   -0.03158
  5 Na   -0.03113    0.02667   -0.00725

System changes: positions 

Initializing position-dependent things.

Density initialized from wave functions
           .--------------------------------------.  
          /|                                      |  
         / |                                      |  
        /  |                                      |  
       /   |                                      |  
      /    |                                      |  
     /     |                                      |  
    /      |                                      |  
   /       |                                      |  
  /        |                                      |  
 *         |           Na                         |  
 |         |                                      |  
 |         |                Na                    |  
 |         |                                      |  
 |         |            Na                        |  
 |         |                    Na                |  
 |         |                                      |  
 |         |                Na                    |  
 |         |                                      |  
 |         |             Na                       |  
 |         .--------------------------------------.  
 |        /                                      /   
 |       /                                      /    
 |      /                                      /     
 |     /                                      /      
 |    /                                      /       
 |   /                                      /        
 |  /                                      /         
 | /                                      /          
 |/                                      /           
 *--------------------------------------*            

Positions:
   0 Na    11.426048    5.045291    9.661557    ( 0.0000,  0.0000,  0.0000)
   1 Na     9.091456    7.135369   10.719917    ( 0.0000,  0.0000,  0.0000)
   2 Na     6.709492    9.264247   11.517387    ( 0.0000,  0.0000,  0.0000)
   3 Na     7.679762    8.011780    5.123763    ( 0.0000,  0.0000,  0.0000)
   4 Na     9.624540    6.463265    7.291744    ( 0.0000,  0.0000,  0.0000)
   5 Na     7.054760    8.691027    8.283876    ( 0.0000,  0.0000,  0.0000)

Unit cell:
           periodic     x           y           z      points  spacing
  1. axis:    no    16.000000    0.000000    0.000000    64     0.2500
  2. axis:    no     0.000000   16.000000    0.000000    64     0.2500
  3. axis:    no     0.000000    0.000000   16.000000    64     0.2500

  Lengths:  16.000000  16.000000  16.000000
  Angles:   90.000000  90.000000  90.000000

Effective grid spacing dv^(1/3) = 0.2500

                     log10-error:    total        iterations:
           time      wfs    density  energy       fermi  poisson
iter:   1  02:14:11  -5.14   +inf    -4.831532    1             
iter:   2  02:14:14  -6.25  -2.81    -4.831530    1             
iter:   3  02:14:16  -6.17  -2.86    -4.831523    2             
iter:   4  02:14:18  -7.45  -3.35    -4.831522    1             
iter:   5  02:14:20  -8.11  -3.61    -4.831522    1             
iter:   6  02:14:23  -7.92  -3.64    -4.831522    1             
iter:   7  02:14:25  -8.68  -4.22    -4.831522    1             

Converged after 7 iterations.

Dipole moment: (0.018523, -0.008637, -0.012103) |e|*Ang

Energy contributions relative to reference atoms: (reference = -26511.662975)

Kinetic:        +11.650349
Potential:      -10.636131
External:        +0.000000
XC:              -5.846937
Entropy (-ST):   -0.000017
Local:           +0.001206
--------------------------
Free energy:     -4.831531
Extrapolated:    -4.831522

Fermi level: -2.26769

 Band  Eigenvalues  Occupancy
    0     -3.89790    2.00000
    1     -2.90212    1.99999
    2     -2.89958    1.99999
    3     -1.66313    0.00001
    4     -1.53562    0.00000
    5     -1.51306    0.00000
    6     -1.32965    0.00000
    7     -0.57007    0.00000

Gap: 1.236 eV
Transition (v -> c):
  (s=0, k=0, n=2, [0.00, 0.00, 0.00]) -> (s=0, k=0, n=3, [0.00, 0.00, 0.00])

Forces in eV/Ang:
  0 Na    0.07554   -0.06384    0.02735
  1 Na    0.01666   -0.01187    0.03886
  2 Na   -0.05562    0.05352    0.07485
  3 Na   -0.02557    0.01517   -0.10247
  4 Na    0.01986   -0.01942   -0.03138
  5 Na   -0.03078    0.02639   -0.00718

System changes: positions 

Initializing position-dependent things.

Density initialized from wave functions
           .--------------------------------------.  
          /|                                      |  
         / |                                      |  
        /  |                                      |  
       /   |                                      |  
      /    |                                      |  
     /     |                                      |  
    /      |                                      |  
   /       |                                      |  
  /        |                                      |  
 *         |           Na                         |  
 |         |                                      |  
 |         |                Na                    |  
 |         |                                      |  
 |         |            Na                        |  
 |         |                    Na                |  
 |         |                                      |  
 |         |                 Na                   |  
 |         |                                      |  
 |         |             Na                       |  
 |         .--------------------------------------.  
 |        /                                      /   
 |       /                                      /    
 |      /                                      /     
 |     /                                      /      
 |    /                                      /       
 |   /                                      /        
 |  /                                      /         
 | /                                      /          
 |/                                      /           
 *--------------------------------------*            

Positions:
   0 Na    11.454152    5.021542    9.671730    ( 0.0000,  0.0000,  0.0000)
   1 Na     9.097654    7.130955   10.734374    ( 0.0000,  0.0000,  0.0000)
   2 Na     6.688800    9.284159   11.545232    ( 0.0000,  0.0000,  0.0000)
   3 Na     7.670249    8.017422    5.085643    ( 0.0000,  0.0000,  0.0000)
   4 Na     9.631927    6.456039    7.280070    ( 0.0000,  0.0000,  0.0000)
   5 Na     7.043309    8.700844    8.281206    ( 0.0000,  0.0000,  0.0000)

Unit cell:
           periodic     x           y           z      points  spacing
  1. axis:    no    16.000000    0.000000    0.000000    64     0.2500
  2. axis:    no     0.000000   16.000000    0.000000    64     0.2500
  3. axis:    no     0.000000    0.000000   16.000000    64     0.2500

  Lengths:  16.000000  16.000000  16.000000
  Angles:   90.000000  90.000000  90.000000

Effective grid spacing dv^(1/3) = 0.2500

                     log10-error:    total        iterations:
           time      wfs    density  energy       fermi  poisson
iter:   1  02:14:29  -2.32   +inf    -4.849728    3             
iter:   2  02:14:31  -3.43  -1.40    -4.848228    2             
iter:   3  02:14:34  -3.36  -1.45    -4.843707    3             
iter:   4  02:14:36  -4.64  -1.96    -4.843320    2             
iter:   5  02:14:38  -5.30  -2.21    -4.843315    1             
iter:   6  02:14:40  -5.15  -2.23    -4.843248    2             
iter:   7  02:14:43  -5.87  -2.81    -4.843252    1             
iter:   8  02:14:45  -6.56  -2.89    -4.843253    1             
iter:   9  02:14:47  -6.75  -2.94    -4.843256    1             
iter:  10  02:14:50  -6.97  -3.10    -4.843255    1             
iter:  11  02:14:52  -7.39  -3.46    -4.843256    1             
iter:  12  02:14:54  -8.24  -3.78    -4.843255    1             
iter:  13  02:14:56  -8.19  -3.77    -4.843256    1             
iter:  14  02:14:59  -8.90  -4.22    -4.843256    1             

Converged after 14 iterations.

Dipole moment: (0.020169, -0.009935, -0.012769) |e|*Ang

Energy contributions relative to reference atoms: (reference = -26511.662975)

Kinetic:        +10.697464
Potential:       -9.881809
External:        +0.000000
XC:              -5.659413
Entropy (-ST):   -0.000020
Local:           +0.000513
--------------------------
Free energy:     -4.843265
Extrapolated:    -4.843256

Fermi level: -2.26901

 Band  Eigenvalues  Occupancy
    0     -3.87498    2.00000
    1     -2.89641    1.99999
    2     -2.89372    1.99999
    3     -1.67179    0.00001
    4     -1.54223    0.00000
    5     -1.52007    0.00000
    6     -1.31573    0.00000
    7     -0.58351    0.00000

Gap: 1.222 eV
Transition (v -> c):
  (s=0, k=0, n=2, [0.00, 0.00, 0.00]) -> (s=0, k=0, n=3, [0.00, 0.00, 0.00])

Forces in eV/Ang:
  0 Na    0.04935   -0.04175    0.01742
  1 Na    0.00790   -0.00529    0.02317
  2 Na   -0.03495    0.03331    0.04701
  3 Na   -0.01670    0.00937   -0.06476
  4 Na    0.01075   -0.01096   -0.01866
  5 Na   -0.01636    0.01529   -0.00410

System changes: positions 

Initializing position-dependent things.

Density initialized from wave functions
           .--------------------------------------.  
          /|                                      |  
         / |                                      |  
        /  |                                      |  
       /   |                                      |  
      /    |                                      |  
     /     |                                      |  
    /      |                                      |  
   /       |                                      |  
  /        |                                      |  
 *         |           Na                         |  
 |         |                                      |  
 |         |                Na                    |  
 |         |                                      |  
 |         |            Na                        |  
 |         |                    Na                |  
 |         |                                      |  
 |         |                 Na                   |  
 |         |                                      |  
 |         |             Na                       |  
 |         .--------------------------------------.  
 |        /                                      /   
 |       /                                      /    
 |      /                                      /     
 |     /                                      /      
 |    /                                      /       
 |   /                                      /        
 |  /                                      /         
 | /                                      /          
 |/                                      /           
 *--------------------------------------*            

Positions:
   0 Na    11.482301    4.997753    9.681910    ( 0.0000,  0.0000,  0.0000)
   1 Na     9.103794    7.126590   10.748805    ( 0.0000,  0.0000,  0.0000)
   2 Na     6.668105    9.304066   11.573079    ( 0.0000,  0.0000,  0.0000)
   3 Na     7.660721    8.023061    5.047511    ( 0.0000,  0.0000,  0.0000)
   4 Na     9.639276    6.448840    7.268419    ( 0.0000,  0.0000,  0.0000)
   5 Na     7.031924    8.710632    8.278546    ( 0.0000,  0.0000,  0.0000)

Unit cell:
           periodic     x           y           z      points  spacing
  1. axis:    no    16.000000    0.000000    0.000000    64     0.2500
  2. axis:    no     0.000000   16.000000    0.000000    64     0.2500
  3. axis:    no     0.000000    0.000000   16.000000    64     0.2500

  Lengths:  16.000000  16.000000  16.000000
  Angles:   90.000000  90.000000  90.000000

Effective grid spacing dv^(1/3) = 0.2500

                     log10-error:    total        iterations:
           time      wfs    density  energy       fermi  poisson
iter:   1  02:15:03  -2.33   +inf    -4.856048    2             
iter:   2  02:15:05  -3.43  -1.41    -4.854593    2             
iter:   3  02:15:08  -3.38  -1.46    -4.850217    3             
iter:   4  02:15:10  -4.65  -1.97    -4.849865    2             
iter:   5  02:15:12  -5.29  -2.21    -4.849859    2             
iter:   6  02:15:15  -5.16  -2.24    -4.849797    2             
iter:   7  02:15:17  -5.88  -2.82    -4.849800    1             
iter:   8  02:15:19  -6.57  -2.90    -4.849801    1             
iter:   9  02:15:22  -6.67  -2.99    -4.849803    1             
iter:  10  02:15:24  -7.40  -3.17    -4.849803    1             
iter:  11  02:15:26  -7.23  -3.18    -4.849803    1             
iter:  12  02:15:28  -7.79  -3.62    -4.849803    1             
iter:  13  02:15:31  -8.26  -3.86    -4.849803    1             
iter:  14  02:15:33  -8.55  -3.93    -4.849803    1             
iter:  15  02:15:35  -9.39  -4.27    -4.849803    1             

Converged after 15 iterations.

Dipole moment: (0.021917, -0.011328, -0.013370) |e|*Ang

Energy contributions relative to reference atoms: (reference = -26511.662975)

Kinetic:         +9.784038
Potential:       -9.158257
External:        +0.000000
XC:              -5.476161
Entropy (-ST):   -0.000022
Local:           +0.000588
--------------------------
Free energy:     -4.849815
Extrapolated:    -4.849803

Fermi level: -2.27062

 Band  Eigenvalues  Occupancy
    0     -3.85280    2.00000
    1     -2.89129    1.99999
    2     -2.88759    1.99999
    3     -1.68090    0.00002
    4     -1.54907    0.00000
    5     -1.52724    0.00000
    6     -1.30250    0.00000
    7     -0.59522    0.00000

Gap: 1.207 eV
Transition (v -> c):
  (s=0, k=0, n=2, [0.00, 0.00, 0.00]) -> (s=0, k=0, n=3, [0.00, 0.00, 0.00])

Forces in eV/Ang:
  0 Na    0.02478   -0.02100    0.00822
  1 Na    0.00015    0.00049    0.00860
  2 Na   -0.01586    0.01465    0.02114
  3 Na   -0.00826    0.00386   -0.02974
  4 Na    0.00236   -0.00316   -0.00703
  5 Na   -0.00317    0.00514   -0.00118

System changes: positions 

Initializing position-dependent things.

Density initialized from wave functions
           .--------------------------------------.  
          /|                                      |  
         / |                                      |  
        /  |                                      |  
       /   |                                      |  
      /    |                                      |  
     /     |                                      |  
    /      |                                      |  
   /       |                                      |  
  /        |                                      |  
 *         |           Na                         |  
 |         |                                      |  
 |         |                Na                    |  
 |         |                                      |  
 |         |            Na                        |  
 |         |                    Na                |  
 |         |                                      |  
 |         |                 Na                   |  
 |         |                                      |  
 |         |             Na                       |  
 |         .--------------------------------------.  
 |        /                                      /   
 |       /                                      /    
 |      /                                      /     
 |     /                                      /      
 |    /                                      /       
 |   /                                      /        
 |  /                                      /         
 | /                                      /          
 |/                                      /           
 *--------------------------------------*            

Positions:
   0 Na    11.505193    4.978406    9.690174    ( 0.0000,  0.0000,  0.0000)
   1 Na     9.108685    7.123125   10.760458    ( 0.0000,  0.0000,  0.0000)
   2 Na     6.651322    9.320198   11.595659    ( 0.0000,  0.0000,  0.0000)
   3 Na     7.652976    8.027624    5.016575    ( 0.0000,  0.0000,  0.0000)
   4 Na     9.645170    6.443049    7.259007    ( 0.0000,  0.0000,  0.0000)
   5 Na     7.022802    8.718524    8.276405    ( 0.0000,  0.0000,  0.0000)

Unit cell:
           periodic     x           y           z      points  spacing
  1. axis:    no    16.000000    0.000000    0.000000    64     0.2500
  2. axis:    no     0.000000   16.000000    0.000000    64     0.2500
  3. axis:    no     0.000000    0.000000   16.000000    64     0.2500

  Lengths:  16.000000  16.000000  16.000000
  Angles:   90.000000  90.000000  90.000000

Effective grid spacing dv^(1/3) = 0.2500

                     log10-error:    total        iterations:
           time      wfs    density  energy       fermi  poisson
iter:   1  02:15:40  -2.52   +inf    -4.855470    2             
iter:   2  02:15:42  -3.61  -1.50    -4.854548    2             
iter:   3  02:15:44  -3.58  -1.56    -4.851782    3             
iter:   4  02:15:47  -4.84  -2.07    -4.851570    2             
iter:   5  02:15:49  -5.46  -2.30    -4.851565    2             
iter:   6  02:15:51  -5.36  -2.34    -4.851526    2             
iter:   7  02:15:54  -6.07  -2.93    -4.851528    1             
iter:   8  02:15:56  -6.74  -3.00    -4.851529    1             
iter:   9  02:15:58  -6.84  -3.13    -4.851530    1             
iter:  10  02:16:00  -7.62  -3.28    -4.851530    1             
iter:  11  02:16:02  -7.29  -3.23    -4.851530    1             
iter:  12  02:16:05  -8.13  -3.91    -4.851530    1             
iter:  13  02:16:07  -8.58  -3.95    -4.851530    1             
iter:  14  02:16:09  -8.82  -4.01    -4.851530    1             

Converged after 14 iterations.

Dipole moment: (0.023241, -0.012379, -0.014024) |e|*Ang

Energy contributions relative to reference atoms: (reference = -26511.662975)

Kinetic:         +9.071155
Potential:       -8.592224
External:        +0.000000
XC:              -5.331100
Entropy (-ST):   -0.000025
Local:           +0.000651
--------------------------
Free energy:     -4.851543
Extrapolated:    -4.851530

Fermi level: -2.27196

 Band  Eigenvalues  Occupancy
    0     -3.83510    2.00000
    1     -2.88708    1.99999
    2     -2.88246    1.99999
    3     -1.68847    0.00002
    4     -1.55463    0.00000
    5     -1.53302    0.00000
    6     -1.29207    0.00000
    7     -0.60421    0.00000

Gap: 1.194 eV
Transition (v -> c):
  (s=0, k=0, n=2, [0.00, 0.00, 0.00]) -> (s=0, k=0, n=3, [0.00, 0.00, 0.00])

Forces in eV/Ang:
  0 Na    0.00560   -0.00479    0.00125
  1 Na   -0.00539    0.00459   -0.00271
  2 Na   -0.00122    0.00034    0.00107
  3 Na   -0.00183   -0.00032   -0.00259
  4 Na   -0.00405    0.00281    0.00204
  5 Na    0.00689   -0.00261    0.00110

Timing:                                      incl.     excl.
-------------------------------------------------------------------
Density initialized from wave functions:     1.174     1.174   0.3% |
 Symmetrize density:                         0.000     0.000   0.0% |
Forces:                                      7.802     7.802   2.1% ||
Hamiltonian:                                 9.134     0.032   0.0% |
 Atomic:                                     1.338     0.006   0.0% |
  XC Correction:                             1.332     1.332   0.4% |
 Calculate atomic Hamiltonians:              0.989     0.989   0.3% |
 Communicate:                                0.000     0.000   0.0% |
 Initialize Hamiltonian:                     0.000     0.000   0.0% |
 Poisson:                                    0.063     0.063   0.0% |
 XC 3D grid:                                 6.712     6.712   1.8% ||
LCAO initialization:                         0.193     0.021   0.0% |
 LCAO eigensolver:                           0.065     0.001   0.0% |
  Calculate projections:                     0.000     0.000   0.0% |
  DenseAtomicCorrection:                     0.000     0.000   0.0% |
  Distribute overlap matrix:                 0.000     0.000   0.0% |
  Orbital Layouts:                           0.001     0.001   0.0% |
  Potential matrix:                          0.063     0.063   0.0% |
 LCAO to grid:                               0.078     0.078   0.0% |
 Set positions (LCAO WFS):                   0.029     0.005   0.0% |
  Basic WFS set positions:                   0.001     0.001   0.0% |
  Basis functions set positions:             0.000     0.000   0.0% |
  P tci:                                     0.013     0.013   0.0% |
  ST tci:                                    0.005     0.005   0.0% |
  mktci:                                     0.006     0.006   0.0% |
PWDescriptor:                                0.017     0.017   0.0% |
Redistribute:                                0.003     0.003   0.0% |
SCF-cycle:                                 162.112     0.097   0.0% |
 Davidson:                                  12.669     1.557   0.4% |
  Apply H:                                   2.608     2.537   0.7% |
   HMM T:                                    0.071     0.071   0.0% |
  Subspace diag:                             2.758     0.012   0.0% |
   calc_h_matrix:                            2.644     0.070   0.0% |
    Apply H:                                 2.574     2.502   0.7% |
     HMM T:                                  0.072     0.072   0.0% |
   diagonalize:                              0.022     0.022   0.0% |
   rotate_psi:                               0.081     0.081   0.0% |
  calc. matrices:                            5.542     0.391   0.1% |
   Apply H:                                  5.151     5.008   1.4% ||
    HMM T:                                   0.143     0.143   0.0% |
  diagonalize:                               0.055     0.055   0.0% |
  rotate_psi:                                0.147     0.147   0.0% |
 Density:                                   20.256     0.002   0.0% |
  Atomic density matrices:                   0.074     0.074   0.0% |
  Mix:                                      18.743    18.743   5.1% |-|
  Multipole moments:                         0.019     0.019   0.0% |
  Pseudo density:                            1.418     1.416   0.4% |
   Symmetrize density:                       0.002     0.002   0.0% |
 Hamiltonian:                              129.064     0.419   0.1% |
  Atomic:                                   18.915     0.081   0.0% |
   XC Correction:                           18.834    18.834   5.1% |-|
  Calculate atomic Hamiltonians:            13.258    13.258   3.6% ||
  Communicate:                               0.001     0.001   0.0% |
  Poisson:                                   0.880     0.880   0.2% |
  XC 3D grid:                               95.590    95.590  26.1% |---------|
 Orthonormalize:                             0.026     0.001   0.0% |
  calc_s_matrix:                             0.003     0.003   0.0% |
  inverse-cholesky:                          0.002     0.002   0.0% |
  projections:                               0.017     0.017   0.0% |
  rotate_psi_s:                              0.003     0.003   0.0% |
Set symmetry:                                0.001     0.001   0.0% |
Other:                                     185.389   185.389  50.7% |-------------------|
-------------------------------------------------------------------
Total:                                               365.825 100.0%

Memory usage: 787.01 MiB
Date: Tue Feb 18 02:19:12 2020
