
  ___ ___ ___ _ _ _  
 |   |   |_  | | | | 
 | | | | | . | | | | 
 |__ |  _|___|_____|  19.8.1
 |___|_|             

User:   hallborn@hebbe12-1
Date:   Mon Feb 17 22:20:54 2020
Arch:   x86_64
Pid:    20689
Python: 3.7.2
gpaw:   /apps/Hebbe7/software/MPI/intel/2019.1.144-GCC-8.2.0-2.31.1/impi/2018.4.274/GPAW/19.8.1-Python-3.7.2/lib/python3.7/site-packages/gpaw
_gpaw:  /apps/Hebbe7/software/MPI/intel/2019.1.144-GCC-8.2.0-2.31.1/impi/2018.4.274/GPAW/19.8.1-Python-3.7.2/bin/
        gpaw-python
ase:    /apps/Hebbe7/software/MPI/intel/2019.1.144-GCC-8.2.0-2.31.1/impi/2018.4.274/ASE/3.18.0-Python-3.7.2/lib/python3.7/site-packages/ase (version 3.18.0)
numpy:  /apps/Hebbe7/software/MPI/intel/2019.1.144-GCC-8.2.0-2.31.1/impi/2018.4.274/SciPy-bundle/2019.03/lib/python3.7/site-packages/numpy (version 1.16.2)
scipy:  /apps/Hebbe7/software/MPI/intel/2019.1.144-GCC-8.2.0-2.31.1/impi/2018.4.274/SciPy-bundle/2019.03/lib/python3.7/site-packages/scipy (version 1.2.1)
libxc:  4.3.4
units:  Angstrom and eV
cores:  1

Input parameters:
  basis: sz(dzp)
  h: 0.25
  mode: lcao
  setups: {Na: 1}
  xc: PBE

System changes: positions, numbers, cell, pbc, initial_charges, initial_magmoms 

Initialize ...

Na-setup:
  name: Sodium
  id: 8dbce52902f3add137ce7d12431c9cac
  Z: 11
  valence: 1
  core: 10
  charge: 0.0
  file: /apps/Common/Core/GPAW-setups/0.9.20000/Na.1.PBE.gz
  compensation charges: gauss, rc=0.43, lmax=2
  cutoffs: 2.36(filt), 3.60(core),
  valence states:
                energy  radius
    3s(1.00)    -2.744   1.349
    3p(0.00)    -0.743   1.349
    *s          24.468   1.349

  LCAO basis set for Na:
    Name: sz(1.dzp)
    File: /apps/Common/Core/GPAW-setups/0.9.20000/Na.1.dzp.basis.gz
    Number of radial functions: 1
    Number of spherical harmonics: 1
      l=0, rc=11.7656 Bohr: 3s-sz confined orbital

Reference energy: -26511.662975

Spin-paired calculation

Occupation numbers:
  Fermi-Dirac: width=0.0000 eV

Convergence criteria:
  Maximum total energy change: 0.0005 eV / electron
  Maximum integral of absolute density change: 0.0001 electrons
  Maximum integral of absolute eigenstate change: 4e-08 eV^2
  Maximum number of iterations: 333

Symmetries present (total): 1

  ( 1  0  0)
  ( 0  1  0)
  ( 0  0  1)

1 k-point (Gamma)
1 k-point in the irreducible part of the Brillouin zone
       k-points in crystal coordinates                weights
   0:     0.00000000    0.00000000    0.00000000          1/1

Wave functions: LCAO
  Diagonalizer: Serial LAPACK
  Atomic Correction: dense with blas
  Datatype: float
 

Eigensolver
   LCAO using direct dense diagonalizer 

Densities:
  Coarse grid: 64*64*64 grid
  Fine grid: 128*128*128 grid
  Total Charge: 0.000000 

Density mixing:
  Method: separate
  Backend: pulay
  Linear mixing parameter: 0.25
  Mixing with 3 old densities
  No damping of long wave oscillations 

Hamiltonian:
  XC and Coulomb potentials evaluated on a 128*128*128 grid
  Using the PBE Exchange-Correlation functional
  Interpolation: tri-quintic (5. degree polynomial)
  Poisson solver: FastPoissonSolver using
    6*3+1=19 point O(h^6) finite-difference Laplacian stencil;
    FFT axes: [];
    FST axes: [0, 1, 2].
 

XC parameters: PBE with 2 nearest neighbor stencil

Memory estimate:
  Process memory now: 474.19 MiB
  Calculator: 117.51 MiB
    Density: 80.09 MiB
      Arrays: 50.70 MiB
      Localized functions: 17.94 MiB
      Mixer: 11.45 MiB
    Hamiltonian: 34.46 MiB
      Arrays: 33.16 MiB
      XC: 0.00 MiB
      Poisson: 0.00 MiB
      vbar: 1.29 MiB
    Wavefunctions: 2.96 MiB
      C [qnM]: 0.00 MiB
      S, T [2 x qmm]: 0.00 MiB
      P [aqMi]: 0.00 MiB
      BasisFunctions: 2.96 MiB
      Eigensolver: 0.00 MiB

Total number of cores used: 1

Number of atoms: 6
Number of atomic orbitals: 6
Number of bands in calculation: 6
Bands to converge: occupied states only
Number of valence electrons: 6

... initialized

Initializing position-dependent things.

Density initialized from atomic densities
           .--------------------------------------.  
          /|                                      |  
         / |                                      |  
        /  |                                      |  
       /   |                                      |  
      /    |                                      |  
     /     |                                      |  
    /      |                                      |  
   /       |                                      |  
  /        |                                      |  
 *         |                                      |  
 |         |          Na                          |  
 |         |                                      |  
 |         |       Na      Na                     |  
 |         |                Na                    |  
 |         |                                      |  
 |         |                                      |  
 |         |             Na   Na                  |  
 |         |                                      |  
 |         |                                      |  
 |         .--------------------------------------.  
 |        /                                      /   
 |       /                                      /    
 |      /                                      /     
 |     /                                      /      
 |    /                                      /       
 |   /                                      /        
 |  /                                      /         
 | /                                      /          
 |/                                      /           
 *--------------------------------------*            

Positions:
   0 Na     8.210231    9.489933    8.656516    ( 0.0000,  0.0000,  0.0000)
   1 Na     6.417931    8.101846   10.968460    ( 0.0000,  0.0000,  0.0000)
   2 Na     5.009862    9.947279    8.321395    ( 0.0000,  0.0000,  0.0000)
   3 Na     7.211492    9.790525    5.577356    ( 0.0000,  0.0000,  0.0000)
   4 Na     9.992557    7.848605    6.505352    ( 0.0000,  0.0000,  0.0000)
   5 Na     9.477264    6.754058    9.822530    ( 0.0000,  0.0000,  0.0000)

Unit cell:
           periodic     x           y           z      points  spacing
  1. axis:    no    16.000000    0.000000    0.000000    64     0.2500
  2. axis:    no     0.000000   16.000000    0.000000    64     0.2500
  3. axis:    no     0.000000    0.000000   16.000000    64     0.2500

  Lengths:  16.000000  16.000000  16.000000
  Angles:   90.000000  90.000000  90.000000

Effective grid spacing dv^(1/3) = 0.2500

                     log10-error:    total        iterations:
           time      wfs    density  energy       fermi  poisson
iter:   1  22:20:59          +inf    -4.167045    0      1      
iter:   2  22:21:01         -1.02    -4.144104    0      1      
iter:   3  22:21:03         -1.14    -4.117968    0      1      
iter:   4  22:21:05         -3.06    -4.117965    0      1      
iter:   5  22:21:07         -3.51    -4.117965    0      1      
iter:   6  22:21:09         -3.87    -4.117964    0      1      
iter:   7  22:21:11         -4.79    -4.117964    0      1      

Converged after 7 iterations.

Dipole moment: (0.057533, 0.095044, 0.043389) |e|*Ang

Energy contributions relative to reference atoms: (reference = -26511.662975)

Kinetic:        +17.510464
Potential:      -15.546875
External:        +0.000000
XC:              -6.090767
Entropy (-ST):   +0.000000
Local:           +0.009213
--------------------------
Free energy:     -4.117964
Extrapolated:    -4.117964

Fermi level: -2.47233

 Band  Eigenvalues  Occupancy
    0     -4.59123    2.00000
    1     -3.17159    2.00000
    2     -3.16229    2.00000
    3     -1.78236    0.00000
    4     -1.50686    0.00000
    5     -1.49735    0.00000

Gap: 1.380 eV
Transition (v -> c):
  (s=0, k=0, n=2, [0.00, 0.00, 0.00]) -> (s=0, k=0, n=3, [0.00, 0.00, 0.00])

Forces in eV/Ang:
  0 Na    0.06915    0.13762    0.04721
  1 Na   -0.08344   -0.05486    0.15121
  2 Na   -0.16545    0.06311   -0.00884
  3 Na   -0.04067    0.05294   -0.16485
  4 Na    0.12624   -0.06916   -0.11191
  5 Na    0.09717   -0.13011    0.08497

System changes: positions 

Initializing position-dependent things.

Density initialized from wave functions
           .--------------------------------------.  
          /|                                      |  
         / |                                      |  
        /  |                                      |  
       /   |                                      |  
      /    |                                      |  
     /     |                                      |  
    /      |                                      |  
   /       |                                      |  
  /        |                                      |  
 *         |                                      |  
 |         |          Na                          |  
 |         |                                      |  
 |         |       Na      Na                     |  
 |         |                Na                    |  
 |         |                                      |  
 |         |                                      |  
 |         |             Na   Na                  |  
 |         |                                      |  
 |         |                                      |  
 |         .--------------------------------------.  
 |        /                                      /   
 |       /                                      /    
 |      /                                      /     
 |     /                                      /      
 |    /                                      /       
 |   /                                      /        
 |  /                                      /         
 | /                                      /          
 |/                                      /           
 *--------------------------------------*            

Positions:
   0 Na     8.211219    9.491899    8.657190    ( 0.0000,  0.0000,  0.0000)
   1 Na     6.416739    8.101062   10.970620    ( 0.0000,  0.0000,  0.0000)
   2 Na     5.007499    9.948181    8.321269    ( 0.0000,  0.0000,  0.0000)
   3 Na     7.210911    9.791281    5.575001    ( 0.0000,  0.0000,  0.0000)
   4 Na     9.994361    7.847617    6.503753    ( 0.0000,  0.0000,  0.0000)
   5 Na     9.478652    6.752199    9.823744    ( 0.0000,  0.0000,  0.0000)

Unit cell:
           periodic     x           y           z      points  spacing
  1. axis:    no    16.000000    0.000000    0.000000    64     0.2500
  2. axis:    no     0.000000   16.000000    0.000000    64     0.2500
  3. axis:    no     0.000000    0.000000   16.000000    64     0.2500

  Lengths:  16.000000  16.000000  16.000000
  Angles:   90.000000  90.000000  90.000000

Effective grid spacing dv^(1/3) = 0.2500

                     log10-error:    total        iterations:
           time      wfs    density  energy       fermi  poisson
iter:   1  22:21:13          +inf    -4.120628    0      1      
iter:   2  22:21:15         -3.69    -4.120628    0      1      
iter:   3  22:21:17         -3.84    -4.120628    0      1      
iter:   4  22:21:19         -4.60    -4.120628    0      1      

Converged after 4 iterations.

Dipole moment: (0.058108, 0.096064, 0.043797) |e|*Ang

Energy contributions relative to reference atoms: (reference = -26511.662975)

Kinetic:        +17.422609
Potential:      -15.477904
External:        +0.000000
XC:              -6.074395
Entropy (-ST):   +0.000000
Local:           +0.009062
--------------------------
Free energy:     -4.120628
Extrapolated:    -4.120628

Fermi level: -2.47144

 Band  Eigenvalues  Occupancy
    0     -4.58725    2.00000
    1     -3.16973    2.00000
    2     -3.16053    2.00000
    3     -1.78235    0.00000
    4     -1.50735    0.00000
    5     -1.49786    0.00000

Gap: 1.378 eV
Transition (v -> c):
  (s=0, k=0, n=2, [0.00, 0.00, 0.00]) -> (s=0, k=0, n=3, [0.00, 0.00, 0.00])

Forces in eV/Ang:
  0 Na    0.06738    0.13396    0.04601
  1 Na   -0.08143   -0.05364    0.14765
  2 Na   -0.16167    0.06180   -0.00857
  3 Na   -0.03962    0.05178   -0.16111
  4 Na    0.12328   -0.06759   -0.10921
  5 Na    0.09495   -0.12694    0.08304

System changes: positions 

Initializing position-dependent things.

Density initialized from wave functions
           .--------------------------------------.  
          /|                                      |  
         / |                                      |  
        /  |                                      |  
       /   |                                      |  
      /    |                                      |  
     /     |                                      |  
    /      |                                      |  
   /       |                                      |  
  /        |                                      |  
 *         |                                      |  
 |         |          Na                          |  
 |         |                                      |  
 |         |       Na      NNa                    |  
 |         |                                      |  
 |         |                                      |  
 |         |                                      |  
 |         |             Na   Na                  |  
 |         |                                      |  
 |         |                                      |  
 |         .--------------------------------------.  
 |        /                                      /   
 |       /                                      /    
 |      /                                      /     
 |     /                                      /      
 |    /                                      /       
 |   /                                      /        
 |  /                                      /         
 | /                                      /          
 |/                                      /           
 *--------------------------------------*            

Positions:
   0 Na     8.226280    9.521842    8.667474    ( 0.0000,  0.0000,  0.0000)
   1 Na     6.398537    8.089073   11.003623    ( 0.0000,  0.0000,  0.0000)
   2 Na     4.971361    9.961994    8.319352    ( 0.0000,  0.0000,  0.0000)
   3 Na     7.202055    9.802856    5.538990    ( 0.0000,  0.0000,  0.0000)
   4 Na    10.021917    7.832508    6.479341    ( 0.0000,  0.0000,  0.0000)
   5 Na     9.499875    6.723825    9.842305    ( 0.0000,  0.0000,  0.0000)

Unit cell:
           periodic     x           y           z      points  spacing
  1. axis:    no    16.000000    0.000000    0.000000    64     0.2500
  2. axis:    no     0.000000   16.000000    0.000000    64     0.2500
  3. axis:    no     0.000000    0.000000   16.000000    64     0.2500

  Lengths:  16.000000  16.000000  16.000000
  Angles:   90.000000  90.000000  90.000000

Effective grid spacing dv^(1/3) = 0.2500

                     log10-error:    total        iterations:
           time      wfs    density  energy       fermi  poisson
iter:   1  22:21:21          +inf    -4.153843    0      1      
iter:   2  22:21:23         -2.50    -4.153773    0      1      
iter:   3  22:21:25         -2.64    -4.153686    0      1      
iter:   4  22:21:27         -3.43    -4.153685    0      1      
iter:   5  22:21:29         -3.82    -4.153685    0      1      
iter:   6  22:21:31         -4.51    -4.153685    0      1      

Converged after 6 iterations.

Dipole moment: (0.066343, 0.110957, 0.049657) |e|*Ang

Energy contributions relative to reference atoms: (reference = -26511.662975)

Kinetic:        +16.086083
Potential:      -14.422813
External:        +0.000000
XC:              -5.825051
Entropy (-ST):   +0.000000
Local:           +0.008097
--------------------------
Free energy:     -4.153685
Extrapolated:    -4.153685

Fermi level: -2.45846

 Band  Eigenvalues  Occupancy
    0     -4.52739    2.00000
    1     -3.14196    2.00000
    2     -3.13420    2.00000
    3     -1.78272    0.00000
    4     -1.51547    0.00000
    5     -1.50639    0.00000

Gap: 1.351 eV
Transition (v -> c):
  (s=0, k=0, n=2, [0.00, 0.00, 0.00]) -> (s=0, k=0, n=3, [0.00, 0.00, 0.00])

Forces in eV/Ang:
  0 Na    0.04127    0.08063    0.02844
  1 Na   -0.05261   -0.03574    0.09665
  2 Na   -0.10647    0.04280   -0.00504
  3 Na   -0.02502    0.03588   -0.10644
  4 Na    0.08086   -0.04512   -0.07010
  5 Na    0.06368   -0.08081    0.05571

System changes: positions 

Initializing position-dependent things.

Density initialized from wave functions
           .--------------------------------------.  
          /|                                      |  
         / |                                      |  
        /  |                                      |  
       /   |                                      |  
      /    |                                      |  
     /     |                                      |  
    /      |                                      |  
   /       |                                      |  
  /        |                                      |  
 *         |                                      |  
 |         |          Na                          |  
 |         |                                      |  
 |         |       Na      NNa                    |  
 |         |                                      |  
 |         |                                      |  
 |         |                                      |  
 |         |             Na   Na                  |  
 |         |                                      |  
 |         |                                      |  
 |         .--------------------------------------.  
 |        /                                      /   
 |       /                                      /    
 |      /                                      /     
 |     /                                      /      
 |    /                                      /       
 |   /                                      /        
 |  /                                      /         
 | /                                      /          
 |/                                      /           
 *--------------------------------------*            

Positions:
   0 Na     8.241281    9.551632    8.677721    ( 0.0000,  0.0000,  0.0000)
   1 Na     6.380348    8.077068   11.036629    ( 0.0000,  0.0000,  0.0000)
   2 Na     4.935205    9.975860    8.317448    ( 0.0000,  0.0000,  0.0000)
   3 Na     7.193218    9.814476    5.502954    ( 0.0000,  0.0000,  0.0000)
   4 Na    10.049479    7.817379    6.454958    ( 0.0000,  0.0000,  0.0000)
   5 Na     9.521134    6.695499    9.860897    ( 0.0000,  0.0000,  0.0000)

Unit cell:
           periodic     x           y           z      points  spacing
  1. axis:    no    16.000000    0.000000    0.000000    64     0.2500
  2. axis:    no     0.000000   16.000000    0.000000    64     0.2500
  3. axis:    no     0.000000    0.000000   16.000000    64     0.2500

  Lengths:  16.000000  16.000000  16.000000
  Angles:   90.000000  90.000000  90.000000

Effective grid spacing dv^(1/3) = 0.2500

                     log10-error:    total        iterations:
           time      wfs    density  energy       fermi  poisson
iter:   1  22:21:33          +inf    -4.173392    0      1      
iter:   2  22:21:35         -2.49    -4.173326    0      1      
iter:   3  22:21:37         -2.63    -4.173244    0      1      
iter:   4  22:21:39         -3.51    -4.173243    0      1      
iter:   5  22:21:41         -3.91    -4.173243    0      1      
iter:   6  22:21:43         -4.51    -4.173243    0      1      

Converged after 6 iterations.

Dipole moment: (0.074334, 0.125607, 0.055327) |e|*Ang

Energy contributions relative to reference atoms: (reference = -26511.662975)

Kinetic:        +14.820234
Potential:      -13.416822
External:        +0.000000
XC:              -5.583733
Entropy (-ST):   +0.000000
Local:           +0.007078
--------------------------
Free energy:     -4.173243
Extrapolated:    -4.173243

Fermi level: -2.44643

 Band  Eigenvalues  Occupancy
    0     -4.46929    2.00000
    1     -3.11484    2.00000
    2     -3.10854    2.00000
    3     -1.78432    0.00000
    4     -1.52413    0.00000
    5     -1.51546    0.00000

Gap: 1.324 eV
Transition (v -> c):
  (s=0, k=0, n=2, [0.00, 0.00, 0.00]) -> (s=0, k=0, n=3, [0.00, 0.00, 0.00])

Forces in eV/Ang:
  0 Na    0.01624    0.03038    0.01109
  1 Na   -0.02667   -0.01910    0.05091
  2 Na   -0.05567    0.02547   -0.00160
  3 Na   -0.01163    0.02189   -0.05666
  4 Na    0.04273   -0.02356   -0.03455
  5 Na    0.03512   -0.03848    0.03101

System changes: positions 

Initializing position-dependent things.

Density initialized from wave functions
           .--------------------------------------.  
          /|                                      |  
         / |                                      |  
        /  |                                      |  
       /   |                                      |  
      /    |                                      |  
     /     |                                      |  
    /      |                                      |  
   /       |                                      |  
  /        |                                      |  
 *         |                                      |  
 |         |          Na                          |  
 |         |                                      |  
 |         |       Na      NNa                    |  
 |         |                                      |  
 |         |                                      |  
 |         |                                      |  
 |         |             Na   Na                  |  
 |         |                                      |  
 |         |                                      |  
 |         .--------------------------------------.  
 |        /                                      /   
 |       /                                      /    
 |      /                                      /     
 |     /                                      /      
 |    /                                      /       
 |   /                                      /        
 |  /                                      /         
 | /                                      /          
 |/                                      /           
 *--------------------------------------*            

Positions:
   0 Na     8.256138    9.581105    8.687868    ( 0.0000,  0.0000,  0.0000)
   1 Na     6.362173    8.065045   11.069664    ( 0.0000,  0.0000,  0.0000)
   2 Na     4.899029    9.989822    8.315573    ( 0.0000,  0.0000,  0.0000)
   3 Na     7.184417    9.826191    5.466868    ( 0.0000,  0.0000,  0.0000)
   4 Na    10.077070    7.802241    6.430620    ( 0.0000,  0.0000,  0.0000)
   5 Na     9.542457    6.667263    9.879554    ( 0.0000,  0.0000,  0.0000)

Unit cell:
           periodic     x           y           z      points  spacing
  1. axis:    no    16.000000    0.000000    0.000000    64     0.2500
  2. axis:    no     0.000000   16.000000    0.000000    64     0.2500
  3. axis:    no     0.000000    0.000000   16.000000    64     0.2500

  Lengths:  16.000000  16.000000  16.000000
  Angles:   90.000000  90.000000  90.000000

Effective grid spacing dv^(1/3) = 0.2500

                     log10-error:    total        iterations:
           time      wfs    density  energy       fermi  poisson
iter:   1  22:21:45          +inf    -4.180673    0      1      
iter:   2  22:21:47         -2.48    -4.180611    0      1      
iter:   3  22:21:49         -2.61    -4.180533    0      1      
iter:   4  22:21:51         -3.61    -4.180533    0      1      
iter:   5  22:21:53         -4.05    -4.180533    0      1      

Converged after 5 iterations.

Dipole moment: (0.082040, 0.139956, 0.060785) |e|*Ang

Energy contributions relative to reference atoms: (reference = -26511.662975)

Kinetic:        +13.623173
Potential:      -12.459448
External:        +0.000000
XC:              -5.350421
Entropy (-ST):   +0.000000
Local:           +0.006163
--------------------------
Free energy:     -4.180533
Extrapolated:    -4.180533

Fermi level: -2.43534

 Band  Eigenvalues  Occupancy
    0     -4.41297    2.00000
    1     -3.08844    2.00000
    2     -3.08359    2.00000
    3     -1.78709    0.00000
    4     -1.53332    0.00000
    5     -1.52513    0.00000

Gap: 1.296 eV
Transition (v -> c):
  (s=0, k=0, n=2, [0.00, 0.00, 0.00]) -> (s=0, k=0, n=3, [0.00, 0.00, 0.00])

Forces in eV/Ang:
  0 Na   -0.00761   -0.01533   -0.00492
  1 Na   -0.00318   -0.00343    0.01008
  2 Na   -0.01019    0.01055    0.00104
  3 Na    0.00040    0.00935   -0.01115
  4 Na    0.00942   -0.00394   -0.00301
  5 Na    0.00902    0.00023    0.00876

Timing:                                       incl.     excl.
--------------------------------------------------------------------
Basic WFS set positions:                      0.004     0.002   0.0% |
 Redistribute:                                0.001     0.001   0.0% |
Basis functions set positions:                0.059     0.059   0.1% |
Forces:                                       0.866     0.453   0.8% |
 LCAO forces:                                 0.412     0.002   0.0% |
  Atomic Hamiltonian force:                   0.007     0.007   0.0% |
  Initial:                                    0.000     0.000   0.0% |
   Get density matrix:                        0.000     0.000   0.0% |
  Paw correction:                             0.006     0.006   0.0% |
  Potential:                                  0.324     0.324   0.6% |
  TCI derivative:                             0.073     0.073   0.1% |
  Wait for sum:                               0.000     0.000   0.0% |
LCAO WFS Initialize:                          9.636     0.096   0.2% |
 Density initialized from wave functions:     0.374     0.336   0.6% |
  Calculate density matrix:                   0.000     0.000   0.0% |
  Construct density:                          0.038     0.038   0.1% |
  Symmetrize density:                         0.000     0.000   0.0% |
 Hamiltonian:                                 9.166     0.001   0.0% |
  Atomic:                                     1.359     0.006   0.0% |
   XC Correction:                             1.353     1.353   2.3% ||
  Calculate atomic Hamiltonians:              0.035     0.035   0.1% |
  Communicate:                                0.000     0.000   0.0% |
  Hartree integrate/restrict:                 0.226     0.226   0.4% |
  Initialize Hamiltonian:                     0.001     0.001   0.0% |
  Poisson:                                    1.341     0.078   0.1% |
   Communicate bwd 0:                         0.154     0.154   0.3% |
   Communicate bwd 1:                         0.104     0.104   0.2% |
   Communicate fwd 0:                         0.153     0.153   0.3% |
   Communicate fwd 1:                         0.158     0.158   0.3% |
   fft:                                       0.208     0.208   0.4% |
   fft2:                                      0.484     0.484   0.8% |
  XC 3D grid:                                 6.169     6.169  10.5% |---|
  vbar:                                       0.033     0.033   0.1% |
P tci:                                        0.056     0.056   0.1% |
Redistribute:                                 0.001     0.001   0.0% |
SCF-cycle:                                   44.711     0.011   0.0% |
 Density:                                     2.276     0.001   0.0% |
  Atomic density matrices:                    0.028     0.028   0.0% |
  Mix:                                        1.985     1.985   3.4% ||
  Multipole moments:                          0.006     0.006   0.0% |
  Normalize:                                  0.010     0.010   0.0% |
  Pseudo density:                             0.245     0.034   0.1% |
   Calculate density matrix:                  0.001     0.001   0.0% |
   Construct density:                         0.209     0.209   0.4% |
   Symmetrize density:                        0.001     0.001   0.0% |
 Hamiltonian:                                42.185     0.004   0.0% |
  Atomic:                                     6.228     0.029   0.0% |
   XC Correction:                             6.199     6.199  10.5% |---|
  Calculate atomic Hamiltonians:              0.158     0.158   0.3% |
  Communicate:                                0.000     0.000   0.0% |
  Hartree integrate/restrict:                 1.136     1.136   1.9% ||
  Poisson:                                    6.114     0.364   0.6% |
   Communicate bwd 0:                         0.726     0.726   1.2% |
   Communicate bwd 1:                         0.450     0.450   0.8% |
   Communicate fwd 0:                         0.683     0.683   1.2% |
   Communicate fwd 1:                         0.729     0.729   1.2% |
   fft:                                       0.940     0.940   1.6% ||
   fft2:                                      2.223     2.223   3.8% |-|
  XC 3D grid:                                28.398    28.398  48.2% |------------------|
  vbar:                                       0.146     0.146   0.2% |
 LCAO eigensolver:                            0.239     0.003   0.0% |
  Calculate projections:                      0.002     0.002   0.0% |
  DenseAtomicCorrection:                      0.009     0.009   0.0% |
  Distribute overlap matrix:                  0.001     0.001   0.0% |
  Orbital Layouts:                            0.006     0.006   0.0% |
  Potential matrix:                           0.219     0.219   0.4% |
ST tci:                                       0.014     0.014   0.0% |
Set symmetry:                                 0.001     0.001   0.0% |
TCI: Evaluate splines:                        0.006     0.006   0.0% |
mktci:                                        0.007     0.007   0.0% |
Other:                                        3.573     3.573   6.1% |-|
--------------------------------------------------------------------
Total:                                                 58.933 100.0%

Memory usage: 559.79 MiB
Date: Mon Feb 17 22:21:53 2020
