
  ___ ___ ___ _ _ _  
 |   |   |_  | | | | 
 | | | | | . | | | | 
 |__ |  _|___|_____|  19.8.1
 |___|_|             

User:   hallborn@hebbe12-5
Date:   Sat Feb 15 00:36:40 2020
Arch:   x86_64
Pid:    13804
Python: 3.7.2
gpaw:   /apps/Hebbe7/software/MPI/intel/2019.1.144-GCC-8.2.0-2.31.1/impi/2018.4.274/GPAW/19.8.1-Python-3.7.2/lib/python3.7/site-packages/gpaw
_gpaw:  /apps/Hebbe7/software/MPI/intel/2019.1.144-GCC-8.2.0-2.31.1/impi/2018.4.274/GPAW/19.8.1-Python-3.7.2/bin/
        gpaw-python
ase:    /apps/Hebbe7/software/MPI/intel/2019.1.144-GCC-8.2.0-2.31.1/impi/2018.4.274/ASE/3.18.0-Python-3.7.2/lib/python3.7/site-packages/ase (version 3.18.0)
numpy:  /apps/Hebbe7/software/MPI/intel/2019.1.144-GCC-8.2.0-2.31.1/impi/2018.4.274/SciPy-bundle/2019.03/lib/python3.7/site-packages/numpy (version 1.16.2)
scipy:  /apps/Hebbe7/software/MPI/intel/2019.1.144-GCC-8.2.0-2.31.1/impi/2018.4.274/SciPy-bundle/2019.03/lib/python3.7/site-packages/scipy (version 1.2.1)
libxc:  4.3.4
units:  Angstrom and eV
cores:  1

Input parameters:
  mode: {ecut: 350.0,
         gammacentered: False,
         name: pw}
  xc: PBE

System changes: positions, numbers, cell, pbc, initial_charges, initial_magmoms 

Initialize ...

Na-setup:
  name: Sodium
  id: d7ecbc49209718622bcbe287195dca2a
  Z: 11
  valence: 7
  core: 4
  charge: 0.0
  file: /apps/Common/Core/GPAW-setups/0.9.20000/Na.PBE.gz
  compensation charges: gauss, rc=0.37, lmax=2
  cutoffs: 2.17(filt), 2.59(core),
  valence states:
                energy  radius
    3s(1.00)    -2.744   1.201
    2p(6.00)   -28.672   1.217
    3p(0.00)    -0.743   1.217
    *s          24.468   1.201
    *d           0.000   1.238

  Using partial waves for Na as LCAO basis

Reference energy: -26511.662986

Spin-paired calculation

Occupation numbers:
  Fermi-Dirac: width=0.0000 eV

Convergence criteria:
  Maximum total energy change: 0.0005 eV / electron
  Maximum integral of absolute density change: 0.0001 electrons
  Maximum integral of absolute eigenstate change: 4e-08 eV^2
  Maximum number of iterations: 333

Symmetries present (total): 1

  ( 1  0  0)
  ( 0  1  0)
  ( 0  0  1)

1 k-point (Gamma)
1 k-point in the irreducible part of the Brillouin zone
       k-points in crystal coordinates                weights
   0:     0.00000000    0.00000000    0.00000000          1/1

Wave functions: Plane wave expansion
  Cutoff energy: 350.000 eV
  Number of coefficients: 61037 (reduced to 30519)
  Pulay-stress correction: 0.000000 eV/Ang^3 (de/decut=0.000000)
  Using FFTW library
  ScaLapack parameters: grid=1x1, blocksize=None
  Wavefunction extrapolation:
    Improved wavefunction reuse through dual PAW basis 

Eigensolver
   Davidson(niter=2, smin=None, normalize=True) 

Densities:
  Coarse grid: 70*70*70 grid
  Fine grid: 140*140*140 grid
  Total Charge: 0.000000 

Density mixing:
  Method: separate
  Backend: pulay
  Linear mixing parameter: 0.05
  Mixing with 5 old densities
  Damping of long wave oscillations: 50 

Hamiltonian:
  XC and Coulomb potentials evaluated on a 140*140*140 grid
  Using the PBE Exchange-Correlation functional
 

XC parameters: PBE with 2 nearest neighbor stencil

Memory estimate:
  Process memory now: 686.29 MiB
  Calculator: 245.12 MiB
    Density: 158.58 MiB
      Arrays: 68.04 MiB
      Localized functions: 64.38 MiB
      Mixer: 26.17 MiB
    Hamiltonian: 45.80 MiB
      Arrays: 44.49 MiB
      XC: 0.00 MiB
      Poisson: 0.00 MiB
      vbar: 1.31 MiB
    Wavefunctions: 40.74 MiB
      Arrays psit_nG: 13.97 MiB
      Eigensolver: 16.37 MiB
      Projections: 0.02 MiB
      Projectors: 3.26 MiB
      PW-descriptor: 7.12 MiB

Total number of cores used: 1

Number of atoms: 6
Number of atomic orbitals: 42
Number of bands in calculation: 30
Bands to converge: occupied states only
Number of valence electrons: 42

... initialized

Initializing position-dependent things.

Density initialized from atomic densities
Creating initial wave functions:
  30 bands from LCAO basis set

           .--------------------------------------.  
          /|                                      |  
         / |                                      |  
        /  |                                      |  
       /   |                                      |  
      /    |                                      |  
     /     |                                      |  
    /      |                                      |  
   /       |                                      |  
  /        |                                      |  
 *         |                                      |  
 |         |          Na                          |  
 |         |                                      |  
 |         |       Na      Na                     |  
 |         |                Na                    |  
 |         |                                      |  
 |         |                                      |  
 |         |             Na   Na                  |  
 |         |                                      |  
 |         |                                      |  
 |         .--------------------------------------.  
 |        /                                      /   
 |       /                                      /    
 |      /                                      /     
 |     /                                      /      
 |    /                                      /       
 |   /                                      /        
 |  /                                      /         
 | /                                      /          
 |/                                      /           
 *--------------------------------------*            

Positions:
   0 Na     8.210231    9.489933    8.656516    ( 0.0000,  0.0000,  0.0000)
   1 Na     6.417931    8.101846   10.968460    ( 0.0000,  0.0000,  0.0000)
   2 Na     5.009862    9.947279    8.321395    ( 0.0000,  0.0000,  0.0000)
   3 Na     7.211492    9.790525    5.577356    ( 0.0000,  0.0000,  0.0000)
   4 Na     9.992557    7.848605    6.505352    ( 0.0000,  0.0000,  0.0000)
   5 Na     9.477264    6.754058    9.822530    ( 0.0000,  0.0000,  0.0000)

Unit cell:
           periodic     x           y           z      points  spacing
  1. axis:    no    16.000000    0.000000    0.000000    70     0.2286
  2. axis:    no     0.000000   16.000000    0.000000    70     0.2286
  3. axis:    no     0.000000    0.000000   16.000000    70     0.2286

  Lengths:  16.000000  16.000000  16.000000
  Angles:   90.000000  90.000000  90.000000

Effective grid spacing dv^(1/3) = 0.2286

                     log10-error:    total        iterations:
           time      wfs    density  energy       fermi  poisson
iter:   1  00:36:46  -0.29   +inf    -5.052403    0             
iter:   2  00:36:49  -1.16  -1.32    -5.062743    0             
iter:   3  00:36:52  -1.47  -1.35    -4.966851    0             
iter:   4  00:36:56  -1.97  -1.76    -4.958505    0             
iter:   5  00:36:59  -2.27  -1.77    -4.965247    0             
iter:   6  00:37:02  -2.47  -1.96    -4.969432    0             
iter:   7  00:37:06  -2.93  -2.49    -4.967884    0             
iter:   8  00:37:09  -3.30  -2.66    -4.966730    0             
iter:   9  00:37:12  -3.71  -2.87    -4.966886    0             
iter:  10  00:37:16  -3.83  -2.87    -4.966484    0             
iter:  11  00:37:19  -4.45  -3.44    -4.966438    0             
iter:  12  00:37:22  -4.86  -3.49    -4.966436    0             
iter:  13  00:37:26  -5.22  -3.50    -4.966446    0             
iter:  14  00:37:29  -5.61  -3.51    -4.966443    0             
iter:  15  00:37:32  -5.98  -3.47    -4.966435    0             
iter:  16  00:37:36  -6.36  -3.49    -4.966432    0             
iter:  17  00:37:39  -6.59  -3.49    -4.966441    0             
iter:  18  00:37:42  -6.89  -3.50    -4.966439    0             
iter:  19  00:37:46  -5.38  -3.52    -4.966413    0             
iter:  20  00:37:49  -6.43  -3.85    -4.966414    0             
iter:  21  00:37:53  -7.17  -3.88    -4.966414    0             
iter:  22  00:37:56  -7.14  -3.92    -4.966415    0             
iter:  23  00:37:59  -7.37  -4.30    -4.966414    0             
iter:  24  00:38:03  -7.82  -4.47    -4.966414    0             

Converged after 24 iterations.

Dipole moment: (-0.070709, -0.111072, -0.048258) |e|*Ang

Energy contributions relative to reference atoms: (reference = -26511.662986)

Kinetic:         +6.453876
Potential:       -5.724087
External:        +0.000000
XC:              -5.527786
Entropy (-ST):   +0.000000
Local:           -0.168417
--------------------------
Free energy:     -4.966414
Extrapolated:    -4.966414

Fermi level: -2.24452

 Band  Eigenvalues  Occupancy
    0    -27.76407    2.00000
    1    -27.76353    2.00000
    2    -27.76210    2.00000
    3    -27.75505    2.00000
    4    -27.75374    2.00000
    5    -27.75302    2.00000
    6    -27.75274    2.00000
    7    -27.75121    2.00000
    8    -27.74926    2.00000
    9    -27.74809    2.00000
   10    -27.73840    2.00000
   11    -27.73798    2.00000
   12    -27.72636    2.00000
   13    -27.72582    2.00000
   14    -27.71968    2.00000
   15    -27.67712    2.00000
   16    -27.64740    2.00000
   17    -27.64731    2.00000
   18     -3.99476    2.00000
   19     -2.82782    2.00000
   20     -2.81995    2.00000
   21     -1.66908    0.00000
   22     -1.52181    0.00000
   23     -1.51128    0.00000
   24     -1.25046    0.00000
   25     -0.66632    0.00000
   26     -0.65256    0.00000
   27     -0.29483    0.00000
   28     -0.26381    0.00000
   29     -0.21427    0.00000

Gap: 1.151 eV
Transition (v -> c):
  (s=0, k=0, n=20, [0.00, 0.00, 0.00]) -> (s=0, k=0, n=21, [0.00, 0.00, 0.00])

Forces in eV/Ang:
  0 Na    0.06020    0.12217    0.04032
  1 Na   -0.05201   -0.04108    0.08077
  2 Na   -0.09556    0.02652   -0.00718
  3 Na   -0.02773    0.02289   -0.09290
  4 Na    0.06679   -0.04942   -0.06506
  5 Na    0.04865   -0.08246    0.04491

System changes: positions 

Initializing position-dependent things.

Density initialized from wave functions
           .--------------------------------------.  
          /|                                      |  
         / |                                      |  
        /  |                                      |  
       /   |                                      |  
      /    |                                      |  
     /     |                                      |  
    /      |                                      |  
   /       |                                      |  
  /        |                                      |  
 *         |                                      |  
 |         |          Na                          |  
 |         |                                      |  
 |         |       Na      Na                     |  
 |         |                Na                    |  
 |         |                                      |  
 |         |                                      |  
 |         |             Na   Na                  |  
 |         |                                      |  
 |         |                                      |  
 |         .--------------------------------------.  
 |        /                                      /   
 |       /                                      /    
 |      /                                      /     
 |     /                                      /      
 |    /                                      /       
 |   /                                      /        
 |  /                                      /         
 | /                                      /          
 |/                                      /           
 *--------------------------------------*            

Positions:
   0 Na     8.211091    9.491678    8.657092    ( 0.0000,  0.0000,  0.0000)
   1 Na     6.417187    8.101259   10.969613    ( 0.0000,  0.0000,  0.0000)
   2 Na     5.008497    9.947658    8.321292    ( 0.0000,  0.0000,  0.0000)
   3 Na     7.211096    9.790852    5.576029    ( 0.0000,  0.0000,  0.0000)
   4 Na     9.993511    7.847899    6.504422    ( 0.0000,  0.0000,  0.0000)
   5 Na     9.477959    6.752880    9.823172    ( 0.0000,  0.0000,  0.0000)

Unit cell:
           periodic     x           y           z      points  spacing
  1. axis:    no    16.000000    0.000000    0.000000    70     0.2286
  2. axis:    no     0.000000   16.000000    0.000000    70     0.2286
  3. axis:    no     0.000000    0.000000   16.000000    70     0.2286

  Lengths:  16.000000  16.000000  16.000000
  Angles:   90.000000  90.000000  90.000000

Effective grid spacing dv^(1/3) = 0.2286

                     log10-error:    total        iterations:
           time      wfs    density  energy       fermi  poisson
iter:   1  00:38:08  -5.08   +inf    -4.967460    0             
iter:   2  00:38:11  -5.73  -3.64    -4.967459    0             
iter:   3  00:38:14  -6.06  -3.68    -4.967451    0             
iter:   4  00:38:18  -6.60  -4.15    -4.967451    0             
iter:   5  00:38:21  -6.98  -4.28    -4.967450    0             
iter:   6  00:38:24  -7.22  -4.47    -4.967451    0             
iter:   7  00:38:28  -7.62  -4.42    -4.967451    0             

Converged after 7 iterations.

Dipole moment: (-0.070600, -0.111380, -0.048096) |e|*Ang

Energy contributions relative to reference atoms: (reference = -26511.662986)

Kinetic:         +6.400201
Potential:       -5.682673
External:        +0.000000
XC:              -5.516858
Entropy (-ST):   +0.000000
Local:           -0.168120
--------------------------
Free energy:     -4.967451
Extrapolated:    -4.967451

Fermi level: -2.24451

 Band  Eigenvalues  Occupancy
    0    -27.76465    2.00000
    1    -27.76406    2.00000
    2    -27.76238    2.00000
    3    -27.75577    2.00000
    4    -27.75445    2.00000
    5    -27.75363    2.00000
    6    -27.75339    2.00000
    7    -27.75158    2.00000
    8    -27.74993    2.00000
    9    -27.74854    2.00000
   10    -27.73904    2.00000
   11    -27.73851    2.00000
   12    -27.72696    2.00000
   13    -27.72652    2.00000
   14    -27.72028    2.00000
   15    -27.67782    2.00000
   16    -27.64810    2.00000
   17    -27.64800    2.00000
   18     -3.99332    2.00000
   19     -2.82742    2.00000
   20     -2.81962    2.00000
   21     -1.66940    0.00000
   22     -1.52228    0.00000
   23     -1.51175    0.00000
   24     -1.24992    0.00000
   25     -0.66678    0.00000
   26     -0.65299    0.00000
   27     -0.29553    0.00000
   28     -0.26534    0.00000
   29     -0.21849    0.00000

Gap: 1.150 eV
Transition (v -> c):
  (s=0, k=0, n=20, [0.00, 0.00, 0.00]) -> (s=0, k=0, n=21, [0.00, 0.00, 0.00])

Forces in eV/Ang:
  0 Na    0.05921    0.12011    0.03963
  1 Na   -0.05116   -0.04021    0.07901
  2 Na   -0.09366    0.02602   -0.00725
  3 Na   -0.02734    0.02244   -0.09101
  4 Na    0.06531   -0.04837   -0.06397
  5 Na    0.04757   -0.08073    0.04392

System changes: positions 

Initializing position-dependent things.

Density initialized from wave functions
           .--------------------------------------.  
          /|                                      |  
         / |                                      |  
        /  |                                      |  
       /   |                                      |  
      /    |                                      |  
     /     |                                      |  
    /      |                                      |  
   /       |                                      |  
  /        |                                      |  
 *         |                                      |  
 |         |          Na                          |  
 |         |                                      |  
 |         |       Na      NNa                    |  
 |         |                                      |  
 |         |                                      |  
 |         |                                      |  
 |         |             Na   Na                  |  
 |         |                                      |  
 |         |                                      |  
 |         .--------------------------------------.  
 |        /                                      /   
 |       /                                      /    
 |      /                                      /     
 |     /                                      /      
 |    /                                      /       
 |   /                                      /        
 |  /                                      /         
 | /                                      /          
 |/                                      /           
 *--------------------------------------*            

Positions:
   0 Na     8.228050    9.526081    8.668443    ( 0.0000,  0.0000,  0.0000)
   1 Na     6.402534    8.089741   10.992245    ( 0.0000,  0.0000,  0.0000)
   2 Na     4.981669    9.955110    8.319216    ( 0.0000,  0.0000,  0.0000)
   3 Na     7.203264    9.797280    5.549961    ( 0.0000,  0.0000,  0.0000)
   4 Na    10.012220    7.834046    6.486100    ( 0.0000,  0.0000,  0.0000)
   5 Na     9.491583    6.729757    9.835752    ( 0.0000,  0.0000,  0.0000)

Unit cell:
           periodic     x           y           z      points  spacing
  1. axis:    no    16.000000    0.000000    0.000000    70     0.2286
  2. axis:    no     0.000000   16.000000    0.000000    70     0.2286
  3. axis:    no     0.000000    0.000000   16.000000    70     0.2286

  Lengths:  16.000000  16.000000  16.000000
  Angles:   90.000000  90.000000  90.000000

Effective grid spacing dv^(1/3) = 0.2286

                     log10-error:    total        iterations:
           time      wfs    density  energy       fermi  poisson
iter:   1  00:38:33  -2.49   +inf    -4.986824    0             
iter:   2  00:38:37  -3.16  -2.35    -4.986239    0             
iter:   3  00:38:40  -3.48  -2.39    -4.983569    0             
iter:   4  00:38:43  -4.03  -2.88    -4.983419    0             
iter:   5  00:38:47  -4.42  -3.02    -4.983406    0             
iter:   6  00:38:50  -4.64  -3.14    -4.983452    0             
iter:   7  00:38:54  -5.10  -3.24    -4.983405    0             
iter:   8  00:38:57  -5.50  -3.82    -4.983408    0             
iter:   9  00:39:01  -5.87  -3.87    -4.983406    0             
iter:  10  00:39:04  -6.26  -4.10    -4.983406    0             
iter:  11  00:39:08  -6.65  -4.22    -4.983406    0             
iter:  12  00:39:11  -6.97  -4.31    -4.983406    0             
iter:  13  00:39:14  -7.20  -4.42    -4.983406    0             
iter:  14  00:39:18  -7.63  -4.68    -4.983406    0             

Converged after 14 iterations.

Dipole moment: (-0.070350, -0.109277, -0.048053) |e|*Ang

Energy contributions relative to reference atoms: (reference = -26511.662986)

Kinetic:         +5.636851
Potential:       -5.124402
External:        +0.000000
XC:              -5.326825
Entropy (-ST):   +0.000000
Local:           -0.169029
--------------------------
Free energy:     -4.983406
Extrapolated:    -4.983406

Fermi level: -2.24430

 Band  Eigenvalues  Occupancy
    0    -27.77037    2.00000
    1    -27.76973    2.00000
    2    -27.76862    2.00000
    3    -27.76405    2.00000
    4    -27.76284    2.00000
    5    -27.76222    2.00000
    6    -27.76174    2.00000
    7    -27.76007    2.00000
    8    -27.75747    2.00000
    9    -27.75623    2.00000
   10    -27.74690    2.00000
   11    -27.74634    2.00000
   12    -27.73578    2.00000
   13    -27.73543    2.00000
   14    -27.72970    2.00000
   15    -27.69693    2.00000
   16    -27.66688    2.00000
   17    -27.66683    2.00000
   18     -3.96475    2.00000
   19     -2.81898    2.00000
   20     -2.81217    2.00000
   21     -1.67644    0.00000
   22     -1.53115    0.00000
   23     -1.52074    0.00000
   24     -1.23906    0.00000
   25     -0.67469    0.00000
   26     -0.66039    0.00000
   27     -0.30877    0.00000
   28     -0.27809    0.00000
   29     -0.22980    0.00000

Gap: 1.136 eV
Transition (v -> c):
  (s=0, k=0, n=20, [0.00, 0.00, 0.00]) -> (s=0, k=0, n=21, [0.00, 0.00, 0.00])

Forces in eV/Ang:
  0 Na    0.03835    0.07485    0.02571
  1 Na   -0.02888   -0.02559    0.04333
  2 Na   -0.05447    0.01457   -0.00419
  3 Na   -0.01614    0.01279   -0.05298
  4 Na    0.03636   -0.03015   -0.03584
  5 Na    0.02576   -0.04534    0.02411

System changes: positions 

Initializing position-dependent things.

Density initialized from wave functions
           .--------------------------------------.  
          /|                                      |  
         / |                                      |  
        /  |                                      |  
       /   |                                      |  
      /    |                                      |  
     /     |                                      |  
    /      |                                      |  
   /       |                                      |  
  /        |                                      |  
 *         |                                      |  
 |         |          Na                          |  
 |         |                                      |  
 |         |       Na      NNa                    |  
 |         |                                      |  
 |         |                                      |  
 |         |                                      |  
 |         |             Na   Na                  |  
 |         |                                      |  
 |         |                                      |  
 |         .--------------------------------------.  
 |        /                                      /   
 |       /                                      /    
 |      /                                      /     
 |     /                                      /      
 |    /                                      /       
 |   /                                      /        
 |  /                                      /         
 | /                                      /          
 |/                                      /           
 *--------------------------------------*            

Positions:
   0 Na     8.245035    9.560464    8.679813    ( 0.0000,  0.0000,  0.0000)
   1 Na     6.387961    8.078217   11.014721    ( 0.0000,  0.0000,  0.0000)
   2 Na     4.954950    9.962518    8.317149    ( 0.0000,  0.0000,  0.0000)
   3 Na     7.195459    9.803675    5.523998    ( 0.0000,  0.0000,  0.0000)
   4 Na    10.030812    7.820199    6.467884    ( 0.0000,  0.0000,  0.0000)
   5 Na     9.505106    6.706766    9.848245    ( 0.0000,  0.0000,  0.0000)

Unit cell:
           periodic     x           y           z      points  spacing
  1. axis:    no    16.000000    0.000000    0.000000    70     0.2286
  2. axis:    no     0.000000   16.000000    0.000000    70     0.2286
  3. axis:    no     0.000000    0.000000   16.000000    70     0.2286

  Lengths:  16.000000  16.000000  16.000000
  Angles:   90.000000  90.000000  90.000000

Effective grid spacing dv^(1/3) = 0.2286

                     log10-error:    total        iterations:
           time      wfs    density  energy       fermi  poisson
iter:   1  00:39:23  -2.51   +inf    -4.994616    0             
iter:   2  00:39:27  -3.17  -2.36    -4.994057    0             
iter:   3  00:39:30  -3.50  -2.40    -4.991494    0             
iter:   4  00:39:34  -4.05  -2.88    -4.991346    0             
iter:   5  00:39:37  -4.43  -3.02    -4.991331    0             
iter:   6  00:39:40  -4.65  -3.15    -4.991381    0             
iter:   7  00:39:44  -5.11  -3.23    -4.991331    0             
iter:   8  00:39:47  -5.52  -3.82    -4.991333    0             
iter:   9  00:39:51  -5.89  -3.87    -4.991331    0             
iter:  10  00:39:54  -6.27  -4.11    -4.991331    0             
iter:  11  00:39:58  -6.66  -4.23    -4.991331    0             
iter:  12  00:40:01  -6.97  -4.32    -4.991331    0             
iter:  13  00:40:05  -7.24  -4.45    -4.991331    0             
iter:  14  00:40:08  -7.67  -4.65    -4.991331    0             

Converged after 14 iterations.

Dipole moment: (-0.069849, -0.106383, -0.047863) |e|*Ang

Energy contributions relative to reference atoms: (reference = -26511.662986)

Kinetic:         +4.879715
Potential:       -4.564146
External:        +0.000000
XC:              -5.137769
Entropy (-ST):   +0.000000
Local:           -0.169131
--------------------------
Free energy:     -4.991331
Extrapolated:    -4.991331

Fermi level: -2.24470

 Band  Eigenvalues  Occupancy
    0    -27.77773    2.00000
    1    -27.77701    2.00000
    2    -27.77630    2.00000
    3    -27.77342    2.00000
    4    -27.77229    2.00000
    5    -27.77175    2.00000
    6    -27.77120    2.00000
    7    -27.76973    2.00000
    8    -27.76597    2.00000
    9    -27.76489    2.00000
   10    -27.75584    2.00000
   11    -27.75527    2.00000
   12    -27.74565    2.00000
   13    -27.74529    2.00000
   14    -27.74006    2.00000
   15    -27.71971    2.00000
   16    -27.68951    2.00000
   17    -27.68945    2.00000
   18     -3.93682    2.00000
   19     -2.81068    2.00000
   20     -2.80486    2.00000
   21     -1.68455    0.00000
   22     -1.54005    0.00000
   23     -1.52972    0.00000
   24     -1.22830    0.00000
   25     -0.68272    0.00000
   26     -0.66789    0.00000
   27     -0.32254    0.00000
   28     -0.29165    0.00000
   29     -0.23756    0.00000

Gap: 1.120 eV
Transition (v -> c):
  (s=0, k=0, n=20, [0.00, 0.00, 0.00]) -> (s=0, k=0, n=21, [0.00, 0.00, 0.00])

Forces in eV/Ang:
  0 Na    0.01776    0.03195    0.01183
  1 Na   -0.00855   -0.01223    0.01091
  2 Na   -0.01854    0.00404   -0.00136
  3 Na   -0.00584    0.00391   -0.01789
  4 Na    0.00980   -0.01337   -0.01017
  5 Na    0.00601   -0.01331    0.00618

System changes: positions 

Initializing position-dependent things.

Density initialized from wave functions
           .--------------------------------------.  
          /|                                      |  
         / |                                      |  
        /  |                                      |  
       /   |                                      |  
      /    |                                      |  
     /     |                                      |  
    /      |                                      |  
   /       |                                      |  
  /        |                                      |  
 *         |                                      |  
 |         |          Na                          |  
 |         |                                      |  
 |         |       Na      NNa                    |  
 |         |                                      |  
 |         |                                      |  
 |         |                                      |  
 |         |             Na   Na                  |  
 |         |                                      |  
 |         |                                      |  
 |         .--------------------------------------.  
 |        /                                      /   
 |       /                                      /    
 |      /                                      /     
 |     /                                      /      
 |    /                                      /       
 |   /                                      /        
 |  /                                      /         
 | /                                      /          
 |/                                      /           
 *--------------------------------------*            

Positions:
   0 Na     8.254263    9.579080    8.685989    ( 0.0000,  0.0000,  0.0000)
   1 Na     6.380159    8.071948   11.026713    ( 0.0000,  0.0000,  0.0000)
   2 Na     4.940595    9.966478    8.316040    ( 0.0000,  0.0000,  0.0000)
   3 Na     7.191257    9.807101    5.510051    ( 0.0000,  0.0000,  0.0000)
   4 Na    10.040746    7.812692    6.458142    ( 0.0000,  0.0000,  0.0000)
   5 Na     9.512312    6.694460    9.854914    ( 0.0000,  0.0000,  0.0000)

Unit cell:
           periodic     x           y           z      points  spacing
  1. axis:    no    16.000000    0.000000    0.000000    70     0.2286
  2. axis:    no     0.000000   16.000000    0.000000    70     0.2286
  3. axis:    no     0.000000    0.000000   16.000000    70     0.2286

  Lengths:  16.000000  16.000000  16.000000
  Angles:   90.000000  90.000000  90.000000

Effective grid spacing dv^(1/3) = 0.2286

                     log10-error:    total        iterations:
           time      wfs    density  energy       fermi  poisson
iter:   1  00:40:13  -3.05   +inf    -4.993406    0             
iter:   2  00:40:16  -3.72  -2.63    -4.993253    0             
iter:   3  00:40:20  -4.05  -2.68    -4.992543    0             
iter:   4  00:40:23  -4.60  -3.15    -4.992500    0             
iter:   5  00:40:26  -4.98  -3.29    -4.992495    0             
iter:   6  00:40:30  -5.19  -3.42    -4.992510    0             
iter:   7  00:40:33  -5.65  -3.49    -4.992495    0             
iter:   8  00:40:37  -6.07  -4.09    -4.992496    0             
iter:   9  00:40:40  -6.43  -4.15    -4.992495    0             
iter:  10  00:40:43  -6.82  -4.39    -4.992495    0             
iter:  11  00:40:47  -7.21  -4.50    -4.992495    0             
iter:  12  00:40:50  -7.51  -4.59    -4.992495    0             

Converged after 12 iterations.

Dipole moment: (-0.069325, -0.104499, -0.047586) |e|*Ang

Energy contributions relative to reference atoms: (reference = -26511.662986)

Kinetic:         +4.468129
Potential:       -4.256334
External:        +0.000000
XC:              -5.035657
Entropy (-ST):   +0.000000
Local:           -0.168634
--------------------------
Free energy:     -4.992495
Extrapolated:    -4.992495

Fermi level: -2.24520

 Band  Eigenvalues  Occupancy
    0    -27.78246    2.00000
    1    -27.78165    2.00000
    2    -27.78102    2.00000
    3    -27.77897    2.00000
    4    -27.77783    2.00000
    5    -27.77724    2.00000
    6    -27.77674    2.00000
    7    -27.77531    2.00000
    8    -27.77102    2.00000
    9    -27.76996    2.00000
   10    -27.76115    2.00000
   11    -27.76050    2.00000
   12    -27.75143    2.00000
   13    -27.75099    2.00000
   14    -27.74602    2.00000
   15    -27.73348    2.00000
   16    -27.70331    2.00000
   17    -27.70323    2.00000
   18     -3.92206    2.00000
   19     -2.80627    2.00000
   20     -2.80101    2.00000
   21     -1.68939    0.00000
   22     -1.54487    0.00000
   23     -1.53456    0.00000
   24     -1.22258    0.00000
   25     -0.68712    0.00000
   26     -0.67201    0.00000
   27     -0.33009    0.00000
   28     -0.29925    0.00000
   29     -0.24089    0.00000

Gap: 1.112 eV
Transition (v -> c):
  (s=0, k=0, n=20, [0.00, 0.00, 0.00]) -> (s=0, k=0, n=21, [0.00, 0.00, 0.00])

Forces in eV/Ang:
  0 Na    0.00672    0.00951    0.00433
  1 Na    0.00148   -0.00549   -0.00532
  2 Na   -0.00040   -0.00133   -0.00004
  3 Na   -0.00075   -0.00061   -0.00007
  4 Na   -0.00364   -0.00490    0.00256
  5 Na   -0.00387    0.00252   -0.00277

Timing:                                      incl.     excl.
-------------------------------------------------------------------
Density initialized from wave functions:     1.133     1.133   0.4% |
 Symmetrize density:                         0.000     0.000   0.0% |
Forces:                                      6.508     6.508   2.6% ||
Hamiltonian:                                10.792     0.032   0.0% |
 Atomic:                                     1.603     0.006   0.0% |
  XC Correction:                             1.597     1.597   0.6% |
 Calculate atomic Hamiltonians:              0.652     0.652   0.3% |
 Communicate:                                0.000     0.000   0.0% |
 Initialize Hamiltonian:                     0.000     0.000   0.0% |
 Poisson:                                    0.073     0.073   0.0% |
 XC 3D grid:                                 8.432     8.432   3.3% ||
LCAO initialization:                         0.320     0.036   0.0% |
 LCAO eigensolver:                           0.037     0.000   0.0% |
  Calculate projections:                     0.000     0.000   0.0% |
  DenseAtomicCorrection:                     0.000     0.000   0.0% |
  Distribute overlap matrix:                 0.000     0.000   0.0% |
  Orbital Layouts:                           0.001     0.001   0.0% |
  Potential matrix:                          0.036     0.036   0.0% |
 LCAO to grid:                               0.215     0.215   0.1% |
 Set positions (LCAO WFS):                   0.031     0.005   0.0% |
  Basic WFS set positions:                   0.000     0.000   0.0% |
  Basis functions set positions:             0.000     0.000   0.0% |
  P tci:                                     0.016     0.016   0.0% |
  ST tci:                                    0.004     0.004   0.0% |
  mktci:                                     0.005     0.005   0.0% |
PWDescriptor:                                0.015     0.015   0.0% |
Redistribute:                                0.003     0.003   0.0% |
SCF-cycle:                                 228.514     0.034   0.0% |
 Davidson:                                  65.503     9.289   3.7% ||
  Apply H:                                  12.208    11.826   4.7% |-|
   HMM T:                                    0.382     0.382   0.2% |
  Subspace diag:                            13.888     0.010   0.0% |
   calc_h_matrix:                           12.603     0.411   0.2% |
    Apply H:                                12.192    11.805   4.7% |-|
     HMM T:                                  0.387     0.387   0.2% |
   diagonalize:                              0.027     0.027   0.0% |
   rotate_psi:                               1.248     1.248   0.5% |
  calc. matrices:                           27.494     3.072   1.2% |
   Apply H:                                 24.422    23.654   9.4% |---|
    HMM T:                                   0.768     0.768   0.3% |
  diagonalize:                               0.126     0.126   0.1% |
  rotate_psi:                                2.498     2.498   1.0% |
 Density:                                   19.894     0.002   0.0% |
  Atomic density matrices:                   0.071     0.071   0.0% |
  Mix:                                      14.045    14.045   5.6% |-|
  Multipole moments:                         0.017     0.017   0.0% |
  Pseudo density:                            5.759     5.757   2.3% ||
   Symmetrize density:                       0.002     0.002   0.0% |
 Hamiltonian:                              142.870     0.428   0.2% |
  Atomic:                                   21.132     0.076   0.0% |
   XC Correction:                           21.056    21.056   8.3% |--|
  Calculate atomic Hamiltonians:             8.533     8.533   3.4% ||
  Communicate:                               0.001     0.001   0.0% |
  Poisson:                                   0.880     0.880   0.3% |
  XC 3D grid:                              111.896   111.896  44.4% |-----------------|
 Orthonormalize:                             0.214     0.001   0.0% |
  calc_s_matrix:                             0.026     0.026   0.0% |
  inverse-cholesky:                          0.002     0.002   0.0% |
  projections:                               0.134     0.134   0.1% |
  rotate_psi_s:                              0.050     0.050   0.0% |
Set symmetry:                                0.001     0.001   0.0% |
Other:                                       4.920     4.920   2.0% ||
-------------------------------------------------------------------
Total:                                               252.206 100.0%

Memory usage: 1.03 GiB
Date: Sat Feb 15 00:40:52 2020
