
  ___ ___ ___ _ _ _  
 |   |   |_  | | | | 
 | | | | | . | | | | 
 |__ |  _|___|_____|  19.8.1
 |___|_|             

User:   hallborn@hebbe10-8
Date:   Fri Feb 14 23:57:54 2020
Arch:   x86_64
Pid:    31304
Python: 3.7.2
gpaw:   /apps/Hebbe7/software/MPI/intel/2019.1.144-GCC-8.2.0-2.31.1/impi/2018.4.274/GPAW/19.8.1-Python-3.7.2/lib/python3.7/site-packages/gpaw
_gpaw:  /apps/Hebbe7/software/MPI/intel/2019.1.144-GCC-8.2.0-2.31.1/impi/2018.4.274/GPAW/19.8.1-Python-3.7.2/bin/
        gpaw-python
ase:    /apps/Hebbe7/software/MPI/intel/2019.1.144-GCC-8.2.0-2.31.1/impi/2018.4.274/ASE/3.18.0-Python-3.7.2/lib/python3.7/site-packages/ase (version 3.18.0)
numpy:  /apps/Hebbe7/software/MPI/intel/2019.1.144-GCC-8.2.0-2.31.1/impi/2018.4.274/SciPy-bundle/2019.03/lib/python3.7/site-packages/numpy (version 1.16.2)
scipy:  /apps/Hebbe7/software/MPI/intel/2019.1.144-GCC-8.2.0-2.31.1/impi/2018.4.274/SciPy-bundle/2019.03/lib/python3.7/site-packages/scipy (version 1.2.1)
libxc:  4.3.4
units:  Angstrom and eV
cores:  1

Input parameters:
  mode: lcao
  xc: PBE

System changes: positions, numbers, cell, pbc, initial_charges, initial_magmoms 

Initialize ...

Na-setup:
  name: Sodium
  id: d7ecbc49209718622bcbe287195dca2a
  Z: 11
  valence: 7
  core: 4
  charge: 0.0
  file: /apps/Common/Core/GPAW-setups/0.9.20000/Na.PBE.gz
  compensation charges: gauss, rc=0.37, lmax=2
  cutoffs: 2.17(filt), 2.59(core),
  valence states:
                energy  radius
    3s(1.00)    -2.744   1.201
    2p(6.00)   -28.672   1.217
    3p(0.00)    -0.743   1.217
    *s          24.468   1.201
    *d           0.000   1.238

  Using partial waves for Na as LCAO basis

Reference energy: -26511.662986

Spin-paired calculation

Occupation numbers:
  Fermi-Dirac: width=0.0000 eV

Convergence criteria:
  Maximum total energy change: 0.0005 eV / electron
  Maximum integral of absolute density change: 0.0001 electrons
  Maximum integral of absolute eigenstate change: 4e-08 eV^2
  Maximum number of iterations: 333

Symmetries present (total): 1

  ( 1  0  0)
  ( 0  1  0)
  ( 0  0  1)

1 k-point (Gamma)
1 k-point in the irreducible part of the Brillouin zone
       k-points in crystal coordinates                weights
   0:     0.00000000    0.00000000    0.00000000          1/1

Wave functions: LCAO
  Diagonalizer: Serial LAPACK
  Atomic Correction: dense with blas
  Datatype: float
 

Eigensolver
   LCAO using direct dense diagonalizer 

Densities:
  Coarse grid: 80*80*80 grid
  Fine grid: 160*160*160 grid
  Total Charge: 0.000000 

Density mixing:
  Method: separate
  Backend: pulay
  Linear mixing parameter: 0.25
  Mixing with 3 old densities
  No damping of long wave oscillations 

Hamiltonian:
  XC and Coulomb potentials evaluated on a 160*160*160 grid
  Using the PBE Exchange-Correlation functional
  Interpolation: tri-quintic (5. degree polynomial)
  Poisson solver: FastPoissonSolver using
    6*3+1=19 point O(h^6) finite-difference Laplacian stencil;
    FFT axes: [];
    FST axes: [0, 1, 2].
 

XC parameters: PBE with 2 nearest neighbor stencil

Memory estimate:
  Process memory now: 457.44 MiB
  Calculator: 228.55 MiB
    Density: 148.73 MiB
      Arrays: 99.53 MiB
      Localized functions: 26.63 MiB
      Mixer: 22.57 MiB
    Hamiltonian: 67.06 MiB
      Arrays: 65.10 MiB
      XC: 0.00 MiB
      Poisson: 0.00 MiB
      vbar: 1.96 MiB
    Wavefunctions: 12.77 MiB
      C [qnM]: 0.01 MiB
      S, T [2 x qmm]: 0.03 MiB
      P [aqMi]: 0.00 MiB
      BasisFunctions: 12.73 MiB
      Eigensolver: 0.00 MiB

Total number of cores used: 1

Number of atoms: 6
Number of atomic orbitals: 42
Number of bands in calculation: 30
Bands to converge: occupied states only
Number of valence electrons: 42

... initialized

Initializing position-dependent things.

Density initialized from atomic densities
           .--------------------------------------.  
          /|                                      |  
         / |                                      |  
        /  |                                      |  
       /   |                                      |  
      /    |                                      |  
     /     |                                      |  
    /      |                                      |  
   /       |                                      |  
  /        |                                      |  
 *         |           Na                         |  
 |         |                                      |  
 |         |                Na                    |  
 |         |                                      |  
 |         |            Na                        |  
 |         |                    Na                |  
 |         |                                      |  
 |         |                Na                    |  
 |         |                                      |  
 |         |             Na                       |  
 |         .--------------------------------------.  
 |        /                                      /   
 |       /                                      /    
 |      /                                      /     
 |     /                                      /      
 |    /                                      /       
 |   /                                      /        
 |  /                                      /         
 | /                                      /          
 |/                                      /           
 *--------------------------------------*            

Positions:
   0 Na    11.424955    5.046215    9.661160    ( 0.0000,  0.0000,  0.0000)
   1 Na     9.091214    7.135542   10.719357    ( 0.0000,  0.0000,  0.0000)
   2 Na     6.710298    9.263471   11.516303    ( 0.0000,  0.0000,  0.0000)
   3 Na     7.680133    8.011559    5.125248    ( 0.0000,  0.0000,  0.0000)
   4 Na     9.624253    6.463545    7.292195    ( 0.0000,  0.0000,  0.0000)
   5 Na     7.055205    8.690646    8.283979    ( 0.0000,  0.0000,  0.0000)

Unit cell:
           periodic     x           y           z      points  spacing
  1. axis:    no    16.000000    0.000000    0.000000    80     0.2000
  2. axis:    no     0.000000   16.000000    0.000000    80     0.2000
  3. axis:    no     0.000000    0.000000   16.000000    80     0.2000

  Lengths:  16.000000  16.000000  16.000000
  Angles:   90.000000  90.000000  90.000000

Effective grid spacing dv^(1/3) = 0.2000

                     log10-error:    total        iterations:
           time      wfs    density  energy       fermi  poisson
iter:   1  23:58:05          +inf    -3.908178    0      1      
iter:   2  23:58:09         -1.36    -3.758069    0      1      
iter:   3  23:58:13         -1.56    -3.721547    0      1      
iter:   4  23:58:16         -1.94    -3.714367    0      1      
iter:   5  23:58:20         -2.84    -3.714136    0      1      
iter:   6  23:58:23         -3.32    -3.714128    0      1      
iter:   7  23:58:27         -3.47    -3.714120    0      1      
iter:   8  23:58:30         -4.55    -3.714120    0      1      

Converged after 8 iterations.

Dipole moment: (0.003926, 0.001639, 0.002846) |e|*Ang

Energy contributions relative to reference atoms: (reference = -26511.662986)

Kinetic:        +19.795931
Potential:      -16.474787
External:        +0.000000
XC:              -7.041097
Entropy (-ST):   +0.000000
Local:           +0.005832
--------------------------
Free energy:     -3.714120
Extrapolated:    -3.714120

Fermi level: -1.92154

 Band  Eigenvalues  Occupancy
    0    -27.53357    2.00000
    1    -27.53319    2.00000
    2    -27.53187    2.00000
    3    -27.52988    2.00000
    4    -27.52774    2.00000
    5    -27.52640    2.00000
    6    -27.52361    2.00000
    7    -27.52240    2.00000
    8    -27.51901    2.00000
    9    -27.45065    2.00000
   10    -27.43355    2.00000
   11    -27.43308    2.00000
   12    -27.43238    2.00000
   13    -27.43136    2.00000
   14    -27.43076    2.00000
   15    -27.40435    2.00000
   16    -27.40366    2.00000
   17    -27.39938    2.00000
   18     -3.64935    2.00000
   19     -2.64256    2.00000
   20     -2.64094    2.00000
   21     -1.20213    0.00000
   22     -1.09327    0.00000
   23     -1.08957    0.00000
   24     -0.65498    0.00000
   25      0.26127    0.00000
   26      0.26572    0.00000
   27      0.31303    0.00000
   28      0.36262    0.00000
   29      0.36534    0.00000

Gap: 1.439 eV
Transition (v -> c):
  (s=0, k=0, n=20, [0.00, 0.00, 0.00]) -> (s=0, k=0, n=21, [0.00, 0.00, 0.00])

Forces in eV/Ang:
  0 Na    0.15351   -0.12975    0.05114
  1 Na    0.03570   -0.02382    0.10558
  2 Na   -0.10809    0.10446    0.15324
  3 Na   -0.05084    0.03094   -0.20783
  4 Na    0.05295   -0.05051   -0.08144
  5 Na   -0.08259    0.06931   -0.01905

System changes: positions 

Initializing position-dependent things.

Density initialized from wave functions
           .--------------------------------------.  
          /|                                      |  
         / |                                      |  
        /  |                                      |  
       /   |                                      |  
      /    |                                      |  
     /     |                                      |  
    /      |                                      |  
   /       |                                      |  
  /        |                                      |  
 *         |           Na                         |  
 |         |                                      |  
 |         |                Na                    |  
 |         |                                      |  
 |         |            Na                        |  
 |         |                    Na                |  
 |         |                                      |  
 |         |                 Na                   |  
 |         |                                      |  
 |         |             Na                       |  
 |         .--------------------------------------.  
 |        /                                      /   
 |       /                                      /    
 |      /                                      /     
 |     /                                      /      
 |    /                                      /       
 |   /                                      /        
 |  /                                      /         
 | /                                      /          
 |/                                      /           
 *--------------------------------------*            

Positions:
   0 Na    11.427148    5.044361    9.661891    ( 0.0000,  0.0000,  0.0000)
   1 Na     9.091724    7.135201   10.720866    ( 0.0000,  0.0000,  0.0000)
   2 Na     6.708754    9.264963   11.518492    ( 0.0000,  0.0000,  0.0000)
   3 Na     7.679407    8.012001    5.122279    ( 0.0000,  0.0000,  0.0000)
   4 Na     9.625010    6.462823    7.291032    ( 0.0000,  0.0000,  0.0000)
   5 Na     7.054025    8.691636    8.283707    ( 0.0000,  0.0000,  0.0000)

Unit cell:
           periodic     x           y           z      points  spacing
  1. axis:    no    16.000000    0.000000    0.000000    80     0.2000
  2. axis:    no     0.000000   16.000000    0.000000    80     0.2000
  3. axis:    no     0.000000    0.000000   16.000000    80     0.2000

  Lengths:  16.000000  16.000000  16.000000
  Angles:   90.000000  90.000000  90.000000

Effective grid spacing dv^(1/3) = 0.2000

                     log10-error:    total        iterations:
           time      wfs    density  energy       fermi  poisson
iter:   1  23:58:35          +inf    -3.716567    0      1      
iter:   2  23:58:38         -4.11    -3.716566    0      1      
iter:   3  23:58:42         -4.31    -3.716566    0      1      

Converged after 3 iterations.

Dipole moment: (0.003953, 0.001559, 0.002849) |e|*Ang

Energy contributions relative to reference atoms: (reference = -26511.662986)

Kinetic:        +19.730560
Potential:      -16.423971
External:        +0.000000
XC:              -7.029491
Entropy (-ST):   +0.000000
Local:           +0.006336
--------------------------
Free energy:     -3.716566
Extrapolated:    -3.716566

Fermi level: -1.92122

 Band  Eigenvalues  Occupancy
    0    -27.53286    2.00000
    1    -27.53251    2.00000
    2    -27.53116    2.00000
    3    -27.52918    2.00000
    4    -27.52708    2.00000
    5    -27.52564    2.00000
    6    -27.52312    2.00000
    7    -27.52184    2.00000
    8    -27.51846    2.00000
    9    -27.45071    2.00000
   10    -27.43385    2.00000
   11    -27.43325    2.00000
   12    -27.43259    2.00000
   13    -27.43169    2.00000
   14    -27.43112    2.00000
   15    -27.40441    2.00000
   16    -27.40377    2.00000
   17    -27.39950    2.00000
   18     -3.64688    2.00000
   19     -2.64162    2.00000
   20     -2.64002    2.00000
   21     -1.20242    0.00000
   22     -1.09364    0.00000
   23     -1.09002    0.00000
   24     -0.65242    0.00000
   25      0.25991    0.00000
   26      0.26433    0.00000
   27      0.31214    0.00000
   28      0.36362    0.00000
   29      0.36634    0.00000

Gap: 1.438 eV
Transition (v -> c):
  (s=0, k=0, n=20, [0.00, 0.00, 0.00]) -> (s=0, k=0, n=21, [0.00, 0.00, 0.00])

Forces in eV/Ang:
  0 Na    0.15118   -0.12781    0.05034
  1 Na    0.03474   -0.02314    0.10242
  2 Na   -0.10653    0.10292    0.15074
  3 Na   -0.04998    0.03053   -0.20433
  4 Na    0.05125   -0.04894   -0.07895
  5 Na   -0.08006    0.06726   -0.01853

System changes: positions 

Initializing position-dependent things.

Density initialized from wave functions
           .--------------------------------------.  
          /|                                      |  
         / |                                      |  
        /  |                                      |  
       /   |                                      |  
      /    |                                      |  
     /     |                                      |  
    /      |                                      |  
   /       |                                      |  
  /        |                                      |  
 *         |           Na                         |  
 |         |                                      |  
 |         |                Na                    |  
 |         |                                      |  
 |         |            Na                        |  
 |         |                    Na                |  
 |         |                                      |  
 |         |                 Na                   |  
 |         |                                      |  
 |         |             Na                       |  
 |         .--------------------------------------.  
 |        /                                      /   
 |       /                                      /    
 |      /                                      /     
 |     /                                      /      
 |    /                                      /       
 |   /                                      /        
 |  /                                      /         
 | /                                      /          
 |/                                      /           
 *--------------------------------------*            

Positions:
   0 Na    11.455598    5.020309    9.671364    ( 0.0000,  0.0000,  0.0000)
   1 Na     9.098262    7.130846   10.740140    ( 0.0000,  0.0000,  0.0000)
   2 Na     6.688707    9.284331   11.546857    ( 0.0000,  0.0000,  0.0000)
   3 Na     7.670002    8.017746    5.083827    ( 0.0000,  0.0000,  0.0000)
   4 Na     9.634655    6.453614    7.276175    ( 0.0000,  0.0000,  0.0000)
   5 Na     7.038958    8.704293    8.280220    ( 0.0000,  0.0000,  0.0000)

Unit cell:
           periodic     x           y           z      points  spacing
  1. axis:    no    16.000000    0.000000    0.000000    80     0.2000
  2. axis:    no     0.000000   16.000000    0.000000    80     0.2000
  3. axis:    no     0.000000    0.000000   16.000000    80     0.2000

  Lengths:  16.000000  16.000000  16.000000
  Angles:   90.000000  90.000000  90.000000

Effective grid spacing dv^(1/3) = 0.2000

                     log10-error:    total        iterations:
           time      wfs    density  energy       fermi  poisson
iter:   1  23:58:46          +inf    -3.744352    0      1      
iter:   2  23:58:49         -2.98    -3.744242    0      1      
iter:   3  23:58:53         -3.19    -3.744182    0      1      
iter:   4  23:58:57         -3.60    -3.744172    0      1      
iter:   5  23:59:00         -4.88    -3.744172    0      1      

Converged after 5 iterations.

Dipole moment: (0.004031, 0.001344, 0.002749) |e|*Ang

Energy contributions relative to reference atoms: (reference = -26511.662986)

Kinetic:        +18.434421
Potential:      -15.360526
External:        +0.000000
XC:              -6.823101
Entropy (-ST):   +0.000000
Local:           +0.005034
--------------------------
Free energy:     -3.744172
Extrapolated:    -3.744172

Fermi level: -1.91932

 Band  Eigenvalues  Occupancy
    0    -27.53397    2.00000
    1    -27.53290    2.00000
    2    -27.53169    2.00000
    3    -27.52939    2.00000
    4    -27.52841    2.00000
    5    -27.52590    2.00000
    6    -27.52557    2.00000
    7    -27.52436    2.00000
    8    -27.52122    2.00000
    9    -27.46383    2.00000
   10    -27.44975    2.00000
   11    -27.44796    2.00000
   12    -27.44781    2.00000
   13    -27.44752    2.00000
   14    -27.44736    2.00000
   15    -27.41715    2.00000
   16    -27.41674    2.00000
   17    -27.41280    2.00000
   18     -3.61857    2.00000
   19     -2.63151    2.00000
   20     -2.62980    2.00000
   21     -1.20884    0.00000
   22     -1.09959    0.00000
   23     -1.09698    0.00000
   24     -0.62158    0.00000
   25      0.24062    0.00000
   26      0.24460    0.00000
   27      0.30046    0.00000
   28      0.37551    0.00000
   29      0.37833    0.00000

Gap: 1.421 eV
Transition (v -> c):
  (s=0, k=0, n=20, [0.00, 0.00, 0.00]) -> (s=0, k=0, n=21, [0.00, 0.00, 0.00])

Forces in eV/Ang:
  0 Na    0.11920   -0.10081    0.03955
  1 Na    0.02403   -0.01560    0.07358
  2 Na   -0.08243    0.07793    0.11688
  3 Na   -0.03839    0.02291   -0.15907
  4 Na    0.03574   -0.03513   -0.05711
  5 Na   -0.05680    0.04799   -0.01367

System changes: positions 

Initializing position-dependent things.

Density initialized from wave functions
           .--------------------------------------.  
          /|                                      |  
         / |                                      |  
        /  |                                      |  
       /   |                                      |  
      /    |                                      |  
     /     |                                      |  
    /      |                                      |  
   /       |                                      |  
  /        |                                      |  
 *         |           Na                         |  
 |         |                                      |  
 |         |                Na                    |  
 |         |                                      |  
 |         |            Na                        |  
 |         |                    Na                |  
 |         |                                      |  
 |         |                 Na                   |  
 |         |                                      |  
 |         |             Na                       |  
 |         .--------------------------------------.  
 |        /                                      /   
 |       /                                      /    
 |      /                                      /     
 |     /                                      /      
 |    /                                      /       
 |   /                                      /        
 |  /                                      /         
 | /                                      /          
 |/                                      /           
 *--------------------------------------*            

Positions:
   0 Na    11.484079    4.996230    9.680845    ( 0.0000,  0.0000,  0.0000)
   1 Na     9.104744    7.126536   10.759301    ( 0.0000,  0.0000,  0.0000)
   2 Na     6.668667    9.303661   11.575218    ( 0.0000,  0.0000,  0.0000)
   3 Na     7.660605    8.023475    5.045371    ( 0.0000,  0.0000,  0.0000)
   4 Na     9.644224    6.444459    7.261398    ( 0.0000,  0.0000,  0.0000)
   5 Na     7.023992    8.716871    8.276747    ( 0.0000,  0.0000,  0.0000)

Unit cell:
           periodic     x           y           z      points  spacing
  1. axis:    no    16.000000    0.000000    0.000000    80     0.2000
  2. axis:    no     0.000000   16.000000    0.000000    80     0.2000
  3. axis:    no     0.000000    0.000000   16.000000    80     0.2000

  Lengths:  16.000000  16.000000  16.000000
  Angles:   90.000000  90.000000  90.000000

Effective grid spacing dv^(1/3) = 0.2000

                     log10-error:    total        iterations:
           time      wfs    density  energy       fermi  poisson
iter:   1  23:59:04          +inf    -3.764682    0      1      
iter:   2  23:59:08         -2.97    -3.764568    0      1      
iter:   3  23:59:11         -3.19    -3.764506    0      1      
iter:   4  23:59:15         -3.59    -3.764496    0      1      
iter:   5  23:59:19         -4.89    -3.764496    0      1      

Converged after 5 iterations.

Dipole moment: (0.004256, 0.001033, 0.002738) |e|*Ang

Energy contributions relative to reference atoms: (reference = -26511.662986)

Kinetic:        +17.223206
Potential:      -14.365613
External:        +0.000000
XC:              -6.626670
Entropy (-ST):   +0.000000
Local:           +0.004581
--------------------------
Free energy:     -3.764496
Extrapolated:    -3.764496

Fermi level: -1.91744

 Band  Eigenvalues  Occupancy
    0    -27.53615    2.00000
    1    -27.53458    2.00000
    2    -27.53287    2.00000
    3    -27.53063    2.00000
    4    -27.52984    2.00000
    5    -27.52935    2.00000
    6    -27.52768    2.00000
    7    -27.52631    2.00000
    8    -27.52469    2.00000
    9    -27.47754    2.00000
   10    -27.46604    2.00000
   11    -27.46435    2.00000
   12    -27.46402    2.00000
   13    -27.46308    2.00000
   14    -27.46276    2.00000
   15    -27.43042    2.00000
   16    -27.43017    2.00000
   17    -27.42658    2.00000
   18     -3.59066    2.00000
   19     -2.62159    2.00000
   20     -2.61946    2.00000
   21     -1.21541    0.00000
   22     -1.10567    0.00000
   23     -1.10396    0.00000
   24     -0.59147    0.00000
   25      0.22168    0.00000
   26      0.22532    0.00000
   27      0.28924    0.00000
   28      0.38737    0.00000
   29      0.39058    0.00000

Gap: 1.404 eV
Transition (v -> c):
  (s=0, k=0, n=20, [0.00, 0.00, 0.00]) -> (s=0, k=0, n=21, [0.00, 0.00, 0.00])

Forces in eV/Ang:
  0 Na    0.08598   -0.07241    0.02850
  1 Na    0.01352   -0.00855    0.04671
  2 Na   -0.05888    0.05599    0.08430
  3 Na   -0.02952    0.01755   -0.11523
  4 Na    0.02050   -0.02062   -0.03582
  5 Na   -0.03254    0.02948   -0.00766

System changes: positions 

Initializing position-dependent things.

Density initialized from wave functions
           .--------------------------------------.  
          /|                                      |  
         / |                                      |  
        /  |                                      |  
       /   |                                      |  
      /    |                                      |  
     /     |                                      |  
    /      |                                      |  
   /       |                                      |  
  /        |                                      |  
 *         |           Na                         |  
 |         |                                      |  
 |         |                Na                    |  
 |         |                                      |  
 |         |            Na                        |  
 |         |                    Na                |  
 |         |                                      |  
 |         |                 Na                   |  
 |         |                                      |  
 |         |             Na                       |  
 |         .--------------------------------------.  
 |        /                                      /   
 |       /                                      /    
 |      /                                      /     
 |     /                                      /      
 |    /                                      /       
 |   /                                      /        
 |  /                                      /         
 | /                                      /          
 |/                                      /           
 *--------------------------------------*            

Positions:
   0 Na    11.512545    4.972170    9.690321    ( 0.0000,  0.0000,  0.0000)
   1 Na     9.111144    7.122283   10.778321    ( 0.0000,  0.0000,  0.0000)
   2 Na     6.648650    9.322974   11.603562    ( 0.0000,  0.0000,  0.0000)
   3 Na     7.651177    8.029222    5.006925    ( 0.0000,  0.0000,  0.0000)
   4 Na     9.653679    6.435405    7.246739    ( 0.0000,  0.0000,  0.0000)
   5 Na     7.009208    8.729335    8.273320    ( 0.0000,  0.0000,  0.0000)

Unit cell:
           periodic     x           y           z      points  spacing
  1. axis:    no    16.000000    0.000000    0.000000    80     0.2000
  2. axis:    no     0.000000   16.000000    0.000000    80     0.2000
  3. axis:    no     0.000000    0.000000   16.000000    80     0.2000

  Lengths:  16.000000  16.000000  16.000000
  Angles:   90.000000  90.000000  90.000000

Effective grid spacing dv^(1/3) = 0.2000

                     log10-error:    total        iterations:
           time      wfs    density  energy       fermi  poisson
iter:   1  23:59:23          +inf    -3.777846    0      1      
iter:   2  23:59:26         -2.95    -3.777724    0      1      
iter:   3  23:59:30         -3.18    -3.777661    0      1      
iter:   4  23:59:33         -3.58    -3.777650    0      1      
iter:   5  23:59:37         -4.90    -3.777650    0      1      

Converged after 5 iterations.

Dipole moment: (0.004485, 0.000783, 0.002658) |e|*Ang

Energy contributions relative to reference atoms: (reference = -26511.662986)

Kinetic:        +16.038804
Potential:      -13.388140
External:        +0.000000
XC:              -6.432502
Entropy (-ST):   +0.000000
Local:           +0.004187
--------------------------
Free energy:     -3.777650
Extrapolated:    -3.777650

Fermi level: -1.91597

 Band  Eigenvalues  Occupancy
    0    -27.54009    2.00000
    1    -27.53846    2.00000
    2    -27.53623    2.00000
    3    -27.53441    2.00000
    4    -27.53394    2.00000
    5    -27.53286    2.00000
    6    -27.53249    2.00000
    7    -27.53006    2.00000
    8    -27.52906    2.00000
    9    -27.49309    2.00000
   10    -27.48398    2.00000
   11    -27.48247    2.00000
   12    -27.48217    2.00000
   13    -27.47998    2.00000
   14    -27.47969    2.00000
   15    -27.44554    2.00000
   16    -27.44527    2.00000
   17    -27.44212    2.00000
   18     -3.56347    2.00000
   19     -2.61203    2.00000
   20     -2.60945    2.00000
   21     -1.22249    0.00000
   22     -1.11219    0.00000
   23     -1.11114    0.00000
   24     -0.56236    0.00000
   25      0.20296    0.00000
   26      0.20619    0.00000
   27      0.27842    0.00000
   28      0.39902    0.00000
   29      0.40269    0.00000

Gap: 1.387 eV
Transition (v -> c):
  (s=0, k=0, n=20, [0.00, 0.00, 0.00]) -> (s=0, k=0, n=21, [0.00, 0.00, 0.00])

Forces in eV/Ang:
  0 Na    0.05629   -0.04515    0.01807
  1 Na    0.00395   -0.00218    0.01895
  2 Na   -0.03619    0.03381    0.05285
  3 Na   -0.01858    0.01106   -0.07220
  4 Na    0.00546   -0.00651   -0.01437
  5 Na   -0.00860    0.01090   -0.00260

System changes: positions 

Initializing position-dependent things.

Density initialized from wave functions
           .--------------------------------------.  
          /|                                      |  
         / |                                      |  
        /  |                                      |  
       /   |                                      |  
      /    |                                      |  
     /     |                                      |  
    /      |                                      |  
   /       |                                      |  
  /        |                                      |  
 *         |           Na                         |  
 |         |                                      |  
 |         |                Na                    |  
 |         |                                      |  
 |         |            Na                        |  
 |         |                    Na                |  
 |         |                                      |  
 |         |                 Na                   |  
 |         |                                      |  
 |         |             Na                       |  
 |         .--------------------------------------.  
 |        /                                      /   
 |       /                                      /    
 |      /                                      /     
 |     /                                      /      
 |    /                                      /       
 |   /                                      /        
 |  /                                      /         
 | /                                      /          
 |/                                      /           
 *--------------------------------------*            

Positions:
   0 Na    11.541071    4.948115    9.699802    ( 0.0000,  0.0000,  0.0000)
   1 Na     9.117427    7.118113   10.797078    ( 0.0000,  0.0000,  0.0000)
   2 Na     6.628651    9.342254   11.631906    ( 0.0000,  0.0000,  0.0000)
   3 Na     7.641745    8.034971    4.968480    ( 0.0000,  0.0000,  0.0000)
   4 Na     9.662945    6.426516    7.232286    ( 0.0000,  0.0000,  0.0000)
   5 Na     6.994724    8.741606    8.269950    ( 0.0000,  0.0000,  0.0000)

Unit cell:
           periodic     x           y           z      points  spacing
  1. axis:    no    16.000000    0.000000    0.000000    80     0.2000
  2. axis:    no     0.000000   16.000000    0.000000    80     0.2000
  3. axis:    no     0.000000    0.000000   16.000000    80     0.2000

  Lengths:  16.000000  16.000000  16.000000
  Angles:   90.000000  90.000000  90.000000

Effective grid spacing dv^(1/3) = 0.2000

                     log10-error:    total        iterations:
           time      wfs    density  energy       fermi  poisson
iter:   1  23:59:41          +inf    -3.784381    0      1      
iter:   2  23:59:45         -2.94    -3.784253    0      1      
iter:   3  23:59:48         -3.18    -3.784189    0      1      
iter:   4  23:59:52         -3.56    -3.784178    0      1      
iter:   5  23:59:55         -4.91    -3.784178    0      1      

Converged after 5 iterations.

Dipole moment: (0.004816, 0.000381, 0.002633) |e|*Ang

Energy contributions relative to reference atoms: (reference = -26511.662986)

Kinetic:        +14.884676
Potential:      -12.431459
External:        +0.000000
XC:              -6.241185
Entropy (-ST):   +0.000000
Local:           +0.003791
--------------------------
Free energy:     -3.784178
Extrapolated:    -3.784178

Fermi level: -1.91482

 Band  Eigenvalues  Occupancy
    0    -27.54574    2.00000
    1    -27.54404    2.00000
    2    -27.54178    2.00000
    3    -27.54113    2.00000
    4    -27.53959    2.00000
    5    -27.53857    2.00000
    6    -27.53705    2.00000
    7    -27.53678    2.00000
    8    -27.53354    2.00000
    9    -27.51020    2.00000
   10    -27.50331    2.00000
   11    -27.50196    2.00000
   12    -27.50163    2.00000
   13    -27.49836    2.00000
   14    -27.49802    2.00000
   15    -27.46221    2.00000
   16    -27.46181    2.00000
   17    -27.45914    2.00000
   18     -3.53714    2.00000
   19     -2.60283    2.00000
   20     -2.59963    2.00000
   21     -1.23000    0.00000
   22     -1.11926    0.00000
   23     -1.11824    0.00000
   24     -0.53427    0.00000
   25      0.18457    0.00000
   26      0.18739    0.00000
   27      0.26819    0.00000
   28      0.41045    0.00000
   29      0.41465    0.00000

Gap: 1.370 eV
Transition (v -> c):
  (s=0, k=0, n=20, [0.00, 0.00, 0.00]) -> (s=0, k=0, n=21, [0.00, 0.00, 0.00])

Forces in eV/Ang:
  0 Na    0.02762   -0.02308    0.00784
  1 Na   -0.00517    0.00443   -0.00749
  2 Na   -0.01538    0.01286    0.02639
  3 Na   -0.00888    0.00322   -0.03168
  4 Na   -0.00787    0.00587    0.00496
  5 Na    0.01250   -0.00553    0.00232

System changes: positions 

Initializing position-dependent things.

Density initialized from wave functions
           .--------------------------------------.  
          /|                                      |  
         / |                                      |  
        /  |                                      |  
       /   |                                      |  
      /    |                                      |  
     /     |                                      |  
    /      |                                      |  
   /       |                                      |  
  /        |                                      |  
 *         |           Na                         |  
 |         |                                      |  
 |         |                Na                    |  
 |         |                                      |  
 |         |           Na                         |  
 |         |                    Na                |  
 |         |                                      |  
 |         |                 Na                   |  
 |         |                                      |  
 |         |             Na                       |  
 |         .--------------------------------------.  
 |        /                                      /   
 |       /                                      /    
 |      /                                      /     
 |     /                                      /      
 |    /                                      /       
 |   /                                      /        
 |  /                                      /         
 | /                                      /          
 |/                                      /           
 *--------------------------------------*            

Positions:
   0 Na    11.556599    4.935007    9.704938    ( 0.0000,  0.0000,  0.0000)
   1 Na     9.120666    7.115982   10.806866    ( 0.0000,  0.0000,  0.0000)
   2 Na     6.617827    9.352655   11.647337    ( 0.0000,  0.0000,  0.0000)
   3 Na     7.636616    8.038052    4.947645    ( 0.0000,  0.0000,  0.0000)
   4 Na     9.667718    6.421909    7.224725    ( 0.0000,  0.0000,  0.0000)
   5 Na     6.987267    8.748007    8.268207    ( 0.0000,  0.0000,  0.0000)

Unit cell:
           periodic     x           y           z      points  spacing
  1. axis:    no    16.000000    0.000000    0.000000    80     0.2000
  2. axis:    no     0.000000   16.000000    0.000000    80     0.2000
  3. axis:    no     0.000000    0.000000   16.000000    80     0.2000

  Lengths:  16.000000  16.000000  16.000000
  Angles:   90.000000  90.000000  90.000000

Effective grid spacing dv^(1/3) = 0.2000

                     log10-error:    total        iterations:
           time      wfs    density  energy       fermi  poisson
iter:   1  23:59:59          +inf    -3.785164    0      1      
iter:   2  00:00:03         -3.21    -3.785125    0      1      
iter:   3  00:00:06         -3.44    -3.785106    0      1      
iter:   4  00:00:10         -3.83    -3.785103    0      1      
iter:   5  00:00:14         -5.19    -3.785103    0      1      

Converged after 5 iterations.

Dipole moment: (0.004992, 0.000118, 0.002594) |e|*Ang

Energy contributions relative to reference atoms: (reference = -26511.662986)

Kinetic:        +14.301021
Potential:      -11.947050
External:        +0.000000
XC:              -6.142742
Entropy (-ST):   +0.000000
Local:           +0.003669
--------------------------
Free energy:     -3.785103
Extrapolated:    -3.785103

Fermi level: -1.91438

 Band  Eigenvalues  Occupancy
    0    -27.54904    2.00000
    1    -27.54733    2.00000
    2    -27.54518    2.00000
    3    -27.54499    2.00000
    4    -27.54347    2.00000
    5    -27.54126    2.00000
    6    -27.54111    2.00000
    7    -27.53941    2.00000
    8    -27.53631    2.00000
    9    -27.51948    2.00000
   10    -27.51371    2.00000
   11    -27.51242    2.00000
   12    -27.51207    2.00000
   13    -27.50828    2.00000
   14    -27.50788    2.00000
   15    -27.47123    2.00000
   16    -27.47074    2.00000
   17    -27.46833    2.00000
   18     -3.52328    2.00000
   19     -2.59784    2.00000
   20     -2.59437    2.00000
   21     -1.23438    0.00000
   22     -1.12308    0.00000
   23     -1.12182    0.00000
   24     -0.51956    0.00000
   25      0.17476    0.00000
   26      0.17735    0.00000
   27      0.26311    0.00000
   28      0.41666    0.00000
   29      0.42108    0.00000

Gap: 1.360 eV
Transition (v -> c):
  (s=0, k=0, n=20, [0.00, 0.00, 0.00]) -> (s=0, k=0, n=21, [0.00, 0.00, 0.00])

Forces in eV/Ang:
  0 Na    0.01122   -0.00894    0.00213
  1 Na   -0.00979    0.00745   -0.02004
  2 Na   -0.00371    0.00141    0.01023
  3 Na   -0.00373   -0.00017   -0.00999
  4 Na   -0.01443    0.01249    0.01476
  5 Na    0.02246   -0.01288    0.00460

System changes: positions 

Initializing position-dependent things.

Density initialized from wave functions
           .--------------------------------------.  
          /|                                      |  
         / |                                      |  
        /  |                                      |  
       /   |                                      |  
      /    |                                      |  
     /     |                                      |  
    /      |                                      |  
   /       |                                      |  
  /        |                                      |  
 *         |           Na                         |  
 |         |                                      |  
 |         |                Na                    |  
 |         |                                      |  
 |         |           Na                         |  
 |         |                    Na                |  
 |         |                                      |  
 |         |                 Na                   |  
 |         |                                      |  
 |         |             Na                       |  
 |         .--------------------------------------.  
 |        /                                      /   
 |       /                                      /    
 |      /                                      /     
 |     /                                      /      
 |    /                                      /       
 |   /                                      /        
 |  /                                      /         
 | /                                      /          
 |/                                      /           
 *--------------------------------------*            

Positions:
   0 Na    11.556800    4.934845    9.704982    ( 0.0000,  0.0000,  0.0000)
   1 Na     9.120532    7.116085   10.806600    ( 0.0000,  0.0000,  0.0000)
   2 Na     6.617747    9.352701   11.647524    ( 0.0000,  0.0000,  0.0000)
   3 Na     7.636550    8.038057    4.947448    ( 0.0000,  0.0000,  0.0000)
   4 Na     9.667521    6.422078    7.224920    ( 0.0000,  0.0000,  0.0000)
   5 Na     6.987574    8.747836    8.268269    ( 0.0000,  0.0000,  0.0000)

Unit cell:
           periodic     x           y           z      points  spacing
  1. axis:    no    16.000000    0.000000    0.000000    80     0.2000
  2. axis:    no     0.000000   16.000000    0.000000    80     0.2000
  3. axis:    no     0.000000    0.000000   16.000000    80     0.2000

  Lengths:  16.000000  16.000000  16.000000
  Angles:   90.000000  90.000000  90.000000

Effective grid spacing dv^(1/3) = 0.2000

                     log10-error:    total        iterations:
           time      wfs    density  energy       fermi  poisson
iter:   1  00:00:18          +inf    -3.785136    0      1      
iter:   2  00:00:21         -5.16    -3.785136    0      1      
iter:   3  00:00:25         -5.48    -3.785136    0      1      

Converged after 3 iterations.

Dipole moment: (0.004958, 0.000148, 0.002576) |e|*Ang

Energy contributions relative to reference atoms: (reference = -26511.662986)

Kinetic:        +14.332294
Potential:      -11.974237
External:        +0.000000
XC:              -6.146984
Entropy (-ST):   +0.000000
Local:           +0.003791
--------------------------
Free energy:     -3.785136
Extrapolated:    -3.785136

Fermi level: -1.91442

 Band  Eigenvalues  Occupancy
    0    -27.54855    2.00000
    1    -27.54690    2.00000
    2    -27.54476    2.00000
    3    -27.54451    2.00000
    4    -27.54305    2.00000
    5    -27.54077    2.00000
    6    -27.54071    2.00000
    7    -27.53897    2.00000
    8    -27.53588    2.00000
    9    -27.51883    2.00000
   10    -27.51301    2.00000
   11    -27.51172    2.00000
   12    -27.51137    2.00000
   13    -27.50760    2.00000
   14    -27.50720    2.00000
   15    -27.47052    2.00000
   16    -27.47005    2.00000
   17    -27.46761    2.00000
   18     -3.52326    2.00000
   19     -2.59764    2.00000
   20     -2.59426    2.00000
   21     -1.23458    0.00000
   22     -1.12277    0.00000
   23     -1.12156    0.00000
   24     -0.51956    0.00000
   25      0.17467    0.00000
   26      0.17723    0.00000
   27      0.26339    0.00000
   28      0.41685    0.00000
   29      0.42117    0.00000

Gap: 1.360 eV
Transition (v -> c):
  (s=0, k=0, n=20, [0.00, 0.00, 0.00]) -> (s=0, k=0, n=21, [0.00, 0.00, 0.00])

Forces in eV/Ang:
  0 Na    0.01094   -0.00870    0.00199
  1 Na   -0.00956    0.00729   -0.01967
  2 Na   -0.00364    0.00133    0.01010
  3 Na   -0.00378   -0.00014   -0.00980
  4 Na   -0.01411    0.01219    0.01458
  5 Na    0.02213   -0.01264    0.00447

System changes: positions 

Initializing position-dependent things.

Density initialized from wave functions
           .--------------------------------------.  
          /|                                      |  
         / |                                      |  
        /  |                                      |  
       /   |                                      |  
      /    |                                      |  
     /     |                                      |  
    /      |                                      |  
   /       |                                      |  
  /        |                                      |  
 *         |           Na                         |  
 |         |                                      |  
 |         |                Na                    |  
 |         |                                      |  
 |         |            Na                        |  
 |         |                    Na                |  
 |         |                                      |  
 |         |                 Na                   |  
 |         |                                      |  
 |         |             Na                       |  
 |         .--------------------------------------.  
 |        /                                      /   
 |       /                                      /    
 |      /                                      /     
 |     /                                      /      
 |    /                                      /       
 |   /                                      /        
 |  /                                      /         
 | /                                      /          
 |/                                      /           
 *--------------------------------------*            

Positions:
   0 Na    11.566521    4.927062    9.706924    ( 0.0000,  0.0000,  0.0000)
   1 Na     9.113283    7.121637   10.791930    ( 0.0000,  0.0000,  0.0000)
   2 Na     6.614105    9.354507   11.656572    ( 0.0000,  0.0000,  0.0000)
   3 Na     7.633215    8.038175    4.938240    ( 0.0000,  0.0000,  0.0000)
   4 Na     9.656830    6.431279    7.235767    ( 0.0000,  0.0000,  0.0000)
   5 Na     7.004356    8.738408    8.271641    ( 0.0000,  0.0000,  0.0000)

Unit cell:
           periodic     x           y           z      points  spacing
  1. axis:    no    16.000000    0.000000    0.000000    80     0.2000
  2. axis:    no     0.000000   16.000000    0.000000    80     0.2000
  3. axis:    no     0.000000    0.000000   16.000000    80     0.2000

  Lengths:  16.000000  16.000000  16.000000
  Angles:   90.000000  90.000000  90.000000

Effective grid spacing dv^(1/3) = 0.2000

                     log10-error:    total        iterations:
           time      wfs    density  energy       fermi  poisson
iter:   1  00:00:29          +inf    -3.786165    0      1      
iter:   2  00:00:33         -3.45    -3.786136    0      1      
iter:   3  00:00:36         -3.74    -3.786130    0      1      
iter:   4  00:00:40         -3.99    -3.786128    0      1      
iter:   5  00:00:43         -4.72    -3.786128    0      1      

Converged after 5 iterations.

Dipole moment: (0.002404, 0.001963, 0.001598) |e|*Ang

Energy contributions relative to reference atoms: (reference = -26511.662986)

Kinetic:        +14.362988
Potential:      -11.991556
External:        +0.000000
XC:              -6.161404
Entropy (-ST):   +0.000000
Local:           +0.003845
--------------------------
Free energy:     -3.786128
Extrapolated:    -3.786128

Fermi level: -1.91911

 Band  Eigenvalues  Occupancy
    0    -27.54973    2.00000
    1    -27.54880    2.00000
    2    -27.54781    2.00000
    3    -27.54597    2.00000
    4    -27.54531    2.00000
    5    -27.54412    2.00000
    6    -27.54145    2.00000
    7    -27.54045    2.00000
    8    -27.53822    2.00000
    9    -27.51263    2.00000
   10    -27.50518    2.00000
   11    -27.50342    2.00000
   12    -27.50261    2.00000
   13    -27.50060    2.00000
   14    -27.49952    2.00000
   15    -27.46247    2.00000
   16    -27.46126    2.00000
   17    -27.45826    2.00000
   18     -3.52640    2.00000
   19     -2.59262    2.00000
   20     -2.59083    2.00000
   21     -1.24740    0.00000
   22     -1.11146    0.00000
   23     -1.10919    0.00000
   24     -0.52258    0.00000
   25      0.16796    0.00000
   26      0.16916    0.00000
   27      0.27569    0.00000
   28      0.42371    0.00000
   29      0.42501    0.00000

Gap: 1.343 eV
Transition (v -> c):
  (s=0, k=0, n=20, [0.00, 0.00, 0.00]) -> (s=0, k=0, n=21, [0.00, 0.00, 0.00])

Forces in eV/Ang:
  0 Na    0.00006    0.00119   -0.00109
  1 Na    0.00299   -0.00227   -0.00346
  2 Na   -0.00223   -0.00005    0.00354
  3 Na   -0.00352   -0.00003   -0.00383
  4 Na   -0.00077   -0.00012    0.00468
  5 Na    0.00559    0.00020    0.00128

Timing:                                       incl.     excl.
--------------------------------------------------------------------
Basic WFS set positions:                      0.008     0.003   0.0% |
 Redistribute:                                0.005     0.005   0.0% |
Basis functions set positions:                0.221     0.221   0.1% |
Forces:                                       3.489     1.084   0.4% |
 LCAO forces:                                 2.405     0.004   0.0% |
  Atomic Hamiltonian force:                   0.012     0.012   0.0% |
  Initial:                                    0.001     0.000   0.0% |
   Get density matrix:                        0.001     0.001   0.0% |
  Paw correction:                             0.011     0.011   0.0% |
  Potential:                                  2.106     2.106   0.8% |
  TCI derivative:                             0.271     0.271   0.1% |
  Wait for sum:                               0.000     0.000   0.0% |
LCAO WFS Initialize:                         31.816     0.132   0.0% |
 Density initialized from wave functions:     1.563     1.163   0.4% |
  Calculate density matrix:                   0.001     0.001   0.0% |
  Construct density:                          0.399     0.399   0.1% |
  Symmetrize density:                         0.000     0.000   0.0% |
 Hamiltonian:                                30.120     0.001   0.0% |
  Atomic:                                     2.681     0.009   0.0% |
   XC Correction:                             2.672     2.672   1.0% |
  Calculate atomic Hamiltonians:              0.091     0.091   0.0% |
  Communicate:                                0.000     0.000   0.0% |
  Hartree integrate/restrict:                 0.955     0.955   0.3% |
  Initialize Hamiltonian:                     0.000     0.000   0.0% |
  Poisson:                                    5.195     0.322   0.1% |
   Communicate bwd 0:                         0.617     0.617   0.2% |
   Communicate bwd 1:                         0.408     0.408   0.1% |
   Communicate fwd 0:                         0.703     0.703   0.3% |
   Communicate fwd 1:                         0.685     0.685   0.2% |
   fft:                                       0.616     0.616   0.2% |
   fft2:                                      1.844     1.844   0.7% |
  XC 3D grid:                                21.088    21.088   7.6% |--|
  vbar:                                       0.108     0.108   0.0% |
P tci:                                        0.112     0.112   0.0% |
Redistribute:                                 0.001     0.001   0.0% |
SCF-cycle:                                  125.280     0.013   0.0% |
 Density:                                     6.649     0.001   0.0% |
  Atomic density matrices:                    0.033     0.033   0.0% |
  Mix:                                        4.776     4.776   1.7% ||
  Multipole moments:                          0.008     0.008   0.0% |
  Normalize:                                  0.020     0.020   0.0% |
  Pseudo density:                             1.811     0.080   0.0% |
   Calculate density matrix:                  0.002     0.002   0.0% |
   Construct density:                         1.728     1.728   0.6% |
   Symmetrize density:                        0.001     0.001   0.0% |
 Hamiltonian:                               116.655     0.005   0.0% |
  Atomic:                                    10.419     0.035   0.0% |
   XC Correction:                            10.384    10.384   3.7% ||
  Calculate atomic Hamiltonians:              0.307     0.307   0.1% |
  Communicate:                                0.000     0.000   0.0% |
  Hartree integrate/restrict:                 3.627     3.627   1.3% ||
  Poisson:                                   20.128     1.150   0.4% |
   Communicate bwd 0:                         2.397     2.397   0.9% |
   Communicate bwd 1:                         1.582     1.582   0.6% |
   Communicate fwd 0:                         2.736     2.736   1.0% |
   Communicate fwd 1:                         2.664     2.664   1.0% |
   fft:                                       2.405     2.405   0.9% |
   fft2:                                      7.192     7.192   2.6% ||
  XC 3D grid:                                81.776    81.776  29.5% |-----------|
  vbar:                                       0.393     0.393   0.1% |
 LCAO eigensolver:                            1.964     0.004   0.0% |
  Calculate projections:                      0.003     0.003   0.0% |
  DenseAtomicCorrection:                      0.010     0.010   0.0% |
  Distribute overlap matrix:                  0.001     0.001   0.0% |
  Orbital Layouts:                            0.021     0.021   0.0% |
  Potential matrix:                           1.924     1.924   0.7% |
ST tci:                                       0.033     0.033   0.0% |
Set symmetry:                                 0.001     0.001   0.0% |
TCI: Evaluate splines:                        0.034     0.034   0.0% |
mktci:                                        0.010     0.010   0.0% |
Other:                                      116.103   116.103  41.9% |----------------|
--------------------------------------------------------------------
Total:                                                277.108 100.0%

Memory usage: 995.74 MiB
Date: Sat Feb 15 00:02:31 2020
