
  ___ ___ ___ _ _ _  
 |   |   |_  | | | | 
 | | | | | . | | | | 
 |__ |  _|___|_____|  19.8.1
 |___|_|             

User:   hallborn@hebbe31-4
Date:   Mon Feb 17 18:09:29 2020
Arch:   x86_64
Pid:    12878
Python: 3.7.2
gpaw:   /apps/Hebbe7/software/MPI/intel/2019.1.144-GCC-8.2.0-2.31.1/impi/2018.4.274/GPAW/19.8.1-Python-3.7.2/lib/python3.7/site-packages/gpaw
_gpaw:  /apps/Hebbe7/software/MPI/intel/2019.1.144-GCC-8.2.0-2.31.1/impi/2018.4.274/GPAW/19.8.1-Python-3.7.2/bin/
        gpaw-python
ase:    /apps/Hebbe7/software/MPI/intel/2019.1.144-GCC-8.2.0-2.31.1/impi/2018.4.274/ASE/3.18.0-Python-3.7.2/lib/python3.7/site-packages/ase (version 3.18.0)
numpy:  /apps/Hebbe7/software/MPI/intel/2019.1.144-GCC-8.2.0-2.31.1/impi/2018.4.274/SciPy-bundle/2019.03/lib/python3.7/site-packages/numpy (version 1.16.2)
scipy:  /apps/Hebbe7/software/MPI/intel/2019.1.144-GCC-8.2.0-2.31.1/impi/2018.4.274/SciPy-bundle/2019.03/lib/python3.7/site-packages/scipy (version 1.2.1)
libxc:  4.3.4
units:  Angstrom and eV
cores:  1

Input parameters:
  basis: dzp
  mode: lcao
  setups: {Na: 1}

System changes: positions, numbers, cell, pbc, initial_charges, initial_magmoms 

Initialize ...

Na-setup:
  name: Sodium
  id: fa5c50181d04022fed15b2593599c257
  Z: 11
  valence: 1
  core: 10
  charge: 0.0
  file: /apps/Common/Core/GPAW-setups/0.9.20000/Na.1.LDA.gz
  compensation charges: gauss, rc=0.43, lmax=2
  cutoffs: 2.36(filt), 3.60(core),
  valence states:
                energy  radius
    3s(1.00)    -2.819   1.349
    3p(0.00)    -0.774   1.349
    *s          24.392   1.349

  LCAO basis set for Na:
    Name: 1.dzp
    File: /apps/Common/Core/GPAW-setups/0.9.20000/Na.1.dzp.basis.gz
    Number of radial functions: 3
    Number of spherical harmonics: 5
      l=0, rc=11.7656 Bohr: 3s-sz confined orbital
      l=0, rc=7.1094 Bohr: 3s-dz split-valence wave
      l=1, rc=11.7656 Bohr: p-type Gaussian polarization

Reference energy: -26392.251304

Spin-paired calculation

Occupation numbers:
  Fermi-Dirac: width=0.0000 eV

Convergence criteria:
  Maximum total energy change: 0.0005 eV / electron
  Maximum integral of absolute density change: 0.0001 electrons
  Maximum integral of absolute eigenstate change: 4e-08 eV^2
  Maximum number of iterations: 333

Symmetries present (total): 1

  ( 1  0  0)
  ( 0  1  0)
  ( 0  0  1)

1 k-point (Gamma)
1 k-point in the irreducible part of the Brillouin zone
       k-points in crystal coordinates                weights
   0:     0.00000000    0.00000000    0.00000000          1/1

Wave functions: LCAO
  Diagonalizer: Serial LAPACK
  Atomic Correction: dense with blas
  Datatype: float
 

Eigensolver
   LCAO using direct dense diagonalizer 

Densities:
  Coarse grid: 80*80*80 grid
  Fine grid: 160*160*160 grid
  Total Charge: 0.000000 

Density mixing:
  Method: separate
  Backend: pulay
  Linear mixing parameter: 0.25
  Mixing with 3 old densities
  No damping of long wave oscillations 

Hamiltonian:
  XC and Coulomb potentials evaluated on a 160*160*160 grid
  Using the LDA Exchange-Correlation functional
  Interpolation: tri-quintic (5. degree polynomial)
  Poisson solver: FastPoissonSolver using
    6*3+1=19 point O(h^6) finite-difference Laplacian stencil;
    FFT axes: [];
    FST axes: [0, 1, 2].
 

Memory estimate:
  Process memory now: 457.39 MiB
  Calculator: 249.19 MiB
    Density: 157.14 MiB
      Arrays: 99.53 MiB
      Localized functions: 35.04 MiB
      Mixer: 22.57 MiB
    Hamiltonian: 67.63 MiB
      Arrays: 65.10 MiB
      XC: 0.00 MiB
      Poisson: 0.00 MiB
      vbar: 2.53 MiB
    Wavefunctions: 24.43 MiB
      C [qnM]: 0.00 MiB
      S, T [2 x qmm]: 0.01 MiB
      P [aqMi]: 0.00 MiB
      BasisFunctions: 24.42 MiB
      Eigensolver: 0.00 MiB

Total number of cores used: 1

Number of atoms: 6
Number of atomic orbitals: 30
Number of bands in calculation: 8
Bands to converge: occupied states only
Number of valence electrons: 6

... initialized

Initializing position-dependent things.

Density initialized from atomic densities
           .--------------------------------------.  
          /|                                      |  
         / |                                      |  
        /  |                                      |  
       /   |                                      |  
      /    |                                      |  
     /     |                                      |  
    /      |                                      |  
   /       |                                      |  
  /        |                                      |  
 *         |           Na                         |  
 |         |                                      |  
 |         |                Na                    |  
 |         |                                      |  
 |         |            Na                        |  
 |         |                    Na                |  
 |         |                                      |  
 |         |                Na                    |  
 |         |                                      |  
 |         |             Na                       |  
 |         .--------------------------------------.  
 |        /                                      /   
 |       /                                      /    
 |      /                                      /     
 |     /                                      /      
 |    /                                      /       
 |   /                                      /        
 |  /                                      /         
 | /                                      /          
 |/                                      /           
 *--------------------------------------*            

Positions:
   0 Na    11.424955    5.046215    9.661160    ( 0.0000,  0.0000,  0.0000)
   1 Na     9.091214    7.135542   10.719357    ( 0.0000,  0.0000,  0.0000)
   2 Na     6.710298    9.263471   11.516303    ( 0.0000,  0.0000,  0.0000)
   3 Na     7.680133    8.011559    5.125248    ( 0.0000,  0.0000,  0.0000)
   4 Na     9.624253    6.463545    7.292195    ( 0.0000,  0.0000,  0.0000)
   5 Na     7.055205    8.690646    8.283979    ( 0.0000,  0.0000,  0.0000)

Unit cell:
           periodic     x           y           z      points  spacing
  1. axis:    no    16.000000    0.000000    0.000000    80     0.2000
  2. axis:    no     0.000000   16.000000    0.000000    80     0.2000
  3. axis:    no     0.000000    0.000000   16.000000    80     0.2000

  Lengths:  16.000000  16.000000  16.000000
  Angles:   90.000000  90.000000  90.000000

Effective grid spacing dv^(1/3) = 0.2000

                     log10-error:    total        iterations:
           time      wfs    density  energy       fermi  poisson
iter:   1  18:09:38          +inf    -5.138296    0      1      
iter:   2  18:09:40         -0.64    -4.999750    0      1      
iter:   3  18:09:42         -0.84    -4.941831    0      1      
iter:   4  18:09:44         -1.24    -4.935010    0      1      
iter:   5  18:09:46         -2.08    -4.934958    0      1      
iter:   6  18:09:48         -2.32    -4.934966    0      1      
iter:   7  18:09:50         -2.49    -4.934969    0      1      
iter:   8  18:09:52         -3.53    -4.934968    0      1      
iter:   9  18:09:53         -3.75    -4.934968    0      1      
iter:  10  18:09:55         -4.22    -4.934968    0      1      

Converged after 10 iterations.

Dipole moment: (0.000475, -0.001094, 0.002818) |e|*Ang

Energy contributions relative to reference atoms: (reference = -26392.251304)

Kinetic:        +19.192887
Potential:      -17.117489
External:        +0.000000
XC:              -7.036082
Entropy (-ST):   +0.000000
Local:           +0.025716
--------------------------
Free energy:     -4.934968
Extrapolated:    -4.934968

Fermi level: -2.38139

 Band  Eigenvalues  Occupancy
    0     -4.20330    2.00000
    1     -3.13378    2.00000
    2     -3.13208    2.00000
    3     -1.63071    0.00000
    4     -1.55363    0.00000
    5     -1.54926    0.00000
    6      2.06583    0.00000
    7      2.06814    0.00000

Gap: 1.501 eV
Transition (v -> c):
  (s=0, k=0, n=2, [0.00, 0.00, 0.00]) -> (s=0, k=0, n=3, [0.00, 0.00, 0.00])

Forces in eV/Ang:
  0 Na   -0.00293    0.00440    0.00193
  1 Na    0.00584   -0.00545   -0.00173
  2 Na   -0.00335    0.00030   -0.00092
  3 Na   -0.00052   -0.00145   -0.00386
  4 Na   -0.00168    0.00084    0.00050
  5 Na    0.00409    0.00229    0.00418

Timing:                              incl.     excl.
-----------------------------------------------------------
Basic WFS set positions:             0.000     0.000   0.0% |
Basis functions set positions:       0.057     0.057   0.1% |
Forces:                              0.807     0.182   0.3% |
 LCAO forces:                        0.625     0.000   0.0% |
  Atomic Hamiltonian force:          0.002     0.002   0.0% |
  Initial:                           0.000     0.000   0.0% |
   Get density matrix:               0.000     0.000   0.0% |
  Paw correction:                    0.001     0.001   0.0% |
  Potential:                         0.599     0.599   1.1% |
  TCI derivative:                    0.023     0.023   0.0% |
  Wait for sum:                      0.000     0.000   0.0% |
LCAO WFS Initialize:                 1.703     0.221   0.4% |
 Hamiltonian:                        1.482     0.000   0.0% |
  Atomic:                            0.079     0.001   0.0% |
   XC Correction:                    0.078     0.078   0.1% |
  Calculate atomic Hamiltonians:     0.014     0.014   0.0% |
  Communicate:                       0.000     0.000   0.0% |
  Hartree integrate/restrict:        0.104     0.104   0.2% |
  Initialize Hamiltonian:            0.000     0.000   0.0% |
  Poisson:                           0.599     0.040   0.1% |
   Communicate bwd 0:                0.071     0.071   0.1% |
   Communicate bwd 1:                0.045     0.045   0.1% |
   Communicate fwd 0:                0.062     0.062   0.1% |
   Communicate fwd 1:                0.070     0.070   0.1% |
   fft:                              0.086     0.086   0.2% |
   fft2:                             0.226     0.226   0.4% |
  XC 3D grid:                        0.663     0.663   1.2% |
  vbar:                              0.022     0.022   0.0% |
P tci:                               0.013     0.013   0.0% |
SCF-cycle:                          17.200     0.004   0.0% |
 Density:                            2.939     0.000   0.0% |
  Atomic density matrices:           0.010     0.010   0.0% |
  Mix:                               1.741     1.741   3.1% ||
  Multipole moments:                 0.002     0.002   0.0% |
  Normalize:                         0.011     0.011   0.0% |
  Pseudo density:                    1.174     0.036   0.1% |
   Calculate density matrix:         0.001     0.001   0.0% |
   Construct density:                1.137     1.137   2.0% ||
   Symmetrize density:               0.000     0.000   0.0% |
 Hamiltonian:                       13.106     0.002   0.0% |
  Atomic:                            0.719     0.010   0.0% |
   XC Correction:                    0.709     0.709   1.3% ||
  Calculate atomic Hamiltonians:     0.114     0.114   0.2% |
  Communicate:                       0.000     0.000   0.0% |
  Hartree integrate/restrict:        0.944     0.944   1.7% ||
  Poisson:                           5.328     0.280   0.5% |
   Communicate bwd 0:                0.651     0.651   1.2% |
   Communicate bwd 1:                0.407     0.407   0.7% |
   Communicate fwd 0:                0.557     0.557   1.0% |
   Communicate fwd 1:                0.608     0.608   1.1% |
   fft:                              0.773     0.773   1.4% ||
   fft2:                             2.052     2.052   3.7% ||
  XC 3D grid:                        5.878     5.878  10.5% |---|
  vbar:                              0.122     0.122   0.2% |
 LCAO eigensolver:                   1.151     0.002   0.0% |
  Calculate projections:             0.001     0.001   0.0% |
  DenseAtomicCorrection:             0.003     0.003   0.0% |
  Distribute overlap matrix:         0.000     0.000   0.0% |
  Orbital Layouts:                   0.005     0.005   0.0% |
  Potential matrix:                  1.140     1.140   2.0% ||
ST tci:                              0.004     0.004   0.0% |
Set symmetry:                        0.001     0.001   0.0% |
TCI: Evaluate splines:               0.023     0.023   0.0% |
mktci:                               0.004     0.004   0.0% |
Other:                              36.099    36.099  64.6% |-------------------------|
-----------------------------------------------------------
Total:                                        55.911 100.0%

Memory usage: 933.68 MiB
Date: Mon Feb 17 18:10:25 2020
