
  ___ ___ ___ _ _ _  
 |   |   |_  | | | | 
 | | | | | . | | | | 
 |__ |  _|___|_____|  19.8.1
 |___|_|             

User:   hallborn@hebbe01-1
Date:   Tue Feb 18 01:26:03 2020
Arch:   x86_64
Pid:    25553
Python: 3.7.2
gpaw:   /apps/Hebbe7/software/MPI/intel/2019.1.144-GCC-8.2.0-2.31.1/impi/2018.4.274/GPAW/19.8.1-Python-3.7.2/lib/python3.7/site-packages/gpaw
_gpaw:  /apps/Hebbe7/software/MPI/intel/2019.1.144-GCC-8.2.0-2.31.1/impi/2018.4.274/GPAW/19.8.1-Python-3.7.2/bin/
        gpaw-python
ase:    /apps/Hebbe7/software/MPI/intel/2019.1.144-GCC-8.2.0-2.31.1/impi/2018.4.274/ASE/3.18.0-Python-3.7.2/lib/python3.7/site-packages/ase (version 3.18.0)
numpy:  /apps/Hebbe7/software/MPI/intel/2019.1.144-GCC-8.2.0-2.31.1/impi/2018.4.274/SciPy-bundle/2019.03/lib/python3.7/site-packages/numpy (version 1.16.2)
scipy:  /apps/Hebbe7/software/MPI/intel/2019.1.144-GCC-8.2.0-2.31.1/impi/2018.4.274/SciPy-bundle/2019.03/lib/python3.7/site-packages/scipy (version 1.2.1)
libxc:  4.3.4
units:  Angstrom and eV
cores:  1

Input parameters:
  basis: dzp
  h: 0.25
  mode: lcao
  setups: {Na: paw}

System changes: positions, numbers, cell, pbc, initial_charges, initial_magmoms 

Initialize ...

Na-setup:
  name: Sodium
  id: 74d681ec425db66acd6a232eb07f04e6
  Z: 11
  valence: 7
  core: 4
  charge: 0.0
  file: /apps/Common/Core/GPAW-setups/0.9.20000/Na.LDA.gz
  compensation charges: gauss, rc=0.37, lmax=2
  cutoffs: 2.17(filt), 2.59(core),
  valence states:
                energy  radius
    3s(1.00)    -2.819   1.201
    2p(6.00)   -28.826   1.217
    3p(0.00)    -0.774   1.217
    *s          24.392   1.201
    *d           0.000   1.238

  LCAO basis set for Na:
    Name: dzp
    File: /apps/Common/Core/GPAW-setups/0.9.20000/Na.dzp.basis.gz
    Number of radial functions: 7
    Number of spherical harmonics: 17
      l=0, rc=11.4062 Bohr: 3s-sz confined orbital
      l=1, rc=3.6719 Bohr: 2p-sz confined orbital
      l=1, rc=15.9375 Bohr: 3p-sz confined orbital
      l=0, rc=6.9531 Bohr: 3s-dz split-valence wave
      l=1, rc=2.4219 Bohr: 2p-dz split-valence wave
      l=1, rc=10.0469 Bohr: 3p-dz split-valence wave
      l=1, rc=11.4062 Bohr: p-type Gaussian polarization

Reference energy: -26392.251266

Spin-paired calculation

Occupation numbers:
  Fermi-Dirac: width=0.0000 eV

Convergence criteria:
  Maximum total energy change: 0.0005 eV / electron
  Maximum integral of absolute density change: 0.0001 electrons
  Maximum integral of absolute eigenstate change: 4e-08 eV^2
  Maximum number of iterations: 333

Symmetries present (total): 1

  ( 1  0  0)
  ( 0  1  0)
  ( 0  0  1)

1 k-point (Gamma)
1 k-point in the irreducible part of the Brillouin zone
       k-points in crystal coordinates                weights
   0:     0.00000000    0.00000000    0.00000000          1/1

Wave functions: LCAO
  Diagonalizer: Serial LAPACK
  Atomic Correction: dense with blas
  Datatype: float
 

Eigensolver
   LCAO using direct dense diagonalizer 

Densities:
  Coarse grid: 64*64*64 grid
  Fine grid: 128*128*128 grid
  Total Charge: 0.000000 

Density mixing:
  Method: separate
  Backend: pulay
  Linear mixing parameter: 0.25
  Mixing with 3 old densities
  No damping of long wave oscillations 

Hamiltonian:
  XC and Coulomb potentials evaluated on a 128*128*128 grid
  Using the LDA Exchange-Correlation functional
  Interpolation: tri-quintic (5. degree polynomial)
  Poisson solver: FastPoissonSolver using
    6*3+1=19 point O(h^6) finite-difference Laplacian stencil;
    FFT axes: [];
    FST axes: [0, 1, 2].
 

Memory estimate:
  Process memory now: 524.64 MiB
  Calculator: 149.51 MiB
    Density: 75.78 MiB
      Arrays: 50.70 MiB
      Localized functions: 13.63 MiB
      Mixer: 11.45 MiB
    Hamiltonian: 34.17 MiB
      Arrays: 33.16 MiB
      XC: 0.00 MiB
      Poisson: 0.00 MiB
      vbar: 1.00 MiB
    Wavefunctions: 39.56 MiB
      C [qnM]: 0.02 MiB
      S, T [2 x qmm]: 0.16 MiB
      P [aqMi]: 0.01 MiB
      BasisFunctions: 39.37 MiB
      Eigensolver: 0.00 MiB

Total number of cores used: 1

Number of atoms: 6
Number of atomic orbitals: 102
Number of bands in calculation: 30
Bands to converge: occupied states only
Number of valence electrons: 42

... initialized

Initializing position-dependent things.

Density initialized from atomic densities
           .--------------------------------------.  
          /|                                      |  
         / |                                      |  
        /  |                                      |  
       /   |                                      |  
      /    |                                      |  
     /     |                                      |  
    /      |                                      |  
   /       |                                      |  
  /        |                                      |  
 *         |                                      |  
 |         |          Na                          |  
 |         |                                      |  
 |         |       Na      Na                     |  
 |         |                Na                    |  
 |         |                                      |  
 |         |                                      |  
 |         |             Na   Na                  |  
 |         |                                      |  
 |         |                                      |  
 |         .--------------------------------------.  
 |        /                                      /   
 |       /                                      /    
 |      /                                      /     
 |     /                                      /      
 |    /                                      /       
 |   /                                      /        
 |  /                                      /         
 | /                                      /          
 |/                                      /           
 *--------------------------------------*            

Positions:
   0 Na     8.210231    9.489933    8.656516    ( 0.0000,  0.0000,  0.0000)
   1 Na     6.417931    8.101846   10.968460    ( 0.0000,  0.0000,  0.0000)
   2 Na     5.009862    9.947279    8.321395    ( 0.0000,  0.0000,  0.0000)
   3 Na     7.211492    9.790525    5.577356    ( 0.0000,  0.0000,  0.0000)
   4 Na     9.992557    7.848605    6.505352    ( 0.0000,  0.0000,  0.0000)
   5 Na     9.477264    6.754058    9.822530    ( 0.0000,  0.0000,  0.0000)

Unit cell:
           periodic     x           y           z      points  spacing
  1. axis:    no    16.000000    0.000000    0.000000    64     0.2500
  2. axis:    no     0.000000   16.000000    0.000000    64     0.2500
  3. axis:    no     0.000000    0.000000   16.000000    64     0.2500

  Lengths:  16.000000  16.000000  16.000000
  Angles:   90.000000  90.000000  90.000000

Effective grid spacing dv^(1/3) = 0.2500

                     log10-error:    total        iterations:
           time      wfs    density  energy       fermi  poisson
iter:   1  01:26:07          +inf    -5.540605    0      1      
iter:   2  01:26:09         -1.29    -5.190050    0      1      
iter:   3  01:26:10         -1.57    -5.124976    0      1      
iter:   4  01:26:12         -1.98    -5.121607    0      1      
iter:   5  01:26:13         -2.51    -5.121686    0      1      
iter:   6  01:26:14         -2.92    -5.121655    0      1      
iter:   7  01:26:16         -3.21    -5.121649    0      1      
iter:   8  01:26:17         -3.51    -5.121653    0      1      
iter:   9  01:26:19         -3.73    -5.121654    0      1      
iter:  10  01:26:20         -4.23    -5.121653    0      1      

Converged after 10 iterations.

Dipole moment: (-0.063747, -0.100233, -0.038193) |e|*Ang

Energy contributions relative to reference atoms: (reference = -26392.251266)

Kinetic:        +11.130357
Potential:       -9.976018
External:        +0.000000
XC:              -6.329516
Entropy (-ST):   +0.000000
Local:           +0.053525
--------------------------
Free energy:     -5.121653
Extrapolated:    -5.121653

Fermi level: -2.46989

 Band  Eigenvalues  Occupancy
    0    -27.96825    2.00000
    1    -27.96727    2.00000
    2    -27.96450    2.00000
    3    -27.95634    2.00000
    4    -27.95514    2.00000
    5    -27.95421    2.00000
    6    -27.95332    2.00000
    7    -27.95195    2.00000
    8    -27.95047    2.00000
    9    -27.94939    2.00000
   10    -27.94373    2.00000
   11    -27.94319    2.00000
   12    -27.93295    2.00000
   13    -27.93255    2.00000
   14    -27.92608    2.00000
   15    -27.86187    2.00000
   16    -27.83643    2.00000
   17    -27.83624    2.00000
   18     -4.22151    2.00000
   19     -3.06160    2.00000
   20     -3.05397    2.00000
   21     -1.88582    0.00000
   22     -1.74774    0.00000
   23     -1.74322    0.00000
   24     -1.39910    0.00000
   25     -0.81674    0.00000
   26     -0.81441    0.00000
   27     -0.43345    0.00000
   28     -0.43225    0.00000
   29     -0.38364    0.00000

Gap: 1.168 eV
Transition (v -> c):
  (s=0, k=0, n=20, [0.00, 0.00, 0.00]) -> (s=0, k=0, n=21, [0.00, 0.00, 0.00])

Forces in eV/Ang:
  0 Na    0.02083    0.05210    0.01332
  1 Na   -0.00196   -0.01450   -0.00387
  2 Na   -0.00061   -0.00688   -0.00671
  3 Na   -0.00403   -0.00992   -0.00081
  4 Na   -0.00407   -0.01420   -0.00270
  5 Na   -0.00365   -0.00980   -0.00635

System changes: positions 

Initializing position-dependent things.

Density initialized from wave functions
           .--------------------------------------.  
          /|                                      |  
         / |                                      |  
        /  |                                      |  
       /   |                                      |  
      /    |                                      |  
     /     |                                      |  
    /      |                                      |  
   /       |                                      |  
  /        |                                      |  
 *         |                                      |  
 |         |          Na                          |  
 |         |                                      |  
 |         |       Na      Na                     |  
 |         |                Na                    |  
 |         |                                      |  
 |         |                                      |  
 |         |             Na   Na                  |  
 |         |                                      |  
 |         |                                      |  
 |         .--------------------------------------.  
 |        /                                      /   
 |       /                                      /    
 |      /                                      /     
 |     /                                      /      
 |    /                                      /       
 |   /                                      /        
 |  /                                      /         
 | /                                      /          
 |/                                      /           
 *--------------------------------------*            

Positions:
   0 Na     8.210529    9.490677    8.656706    ( 0.0000,  0.0000,  0.0000)
   1 Na     6.417902    8.101638   10.968404    ( 0.0000,  0.0000,  0.0000)
   2 Na     5.009854    9.947181    8.321299    ( 0.0000,  0.0000,  0.0000)
   3 Na     7.211435    9.790383    5.577344    ( 0.0000,  0.0000,  0.0000)
   4 Na     9.992499    7.848402    6.505313    ( 0.0000,  0.0000,  0.0000)
   5 Na     9.477212    6.753918    9.822440    ( 0.0000,  0.0000,  0.0000)

Unit cell:
           periodic     x           y           z      points  spacing
  1. axis:    no    16.000000    0.000000    0.000000    64     0.2500
  2. axis:    no     0.000000   16.000000    0.000000    64     0.2500
  3. axis:    no     0.000000    0.000000   16.000000    64     0.2500

  Lengths:  16.000000  16.000000  16.000000
  Angles:   90.000000  90.000000  90.000000

Effective grid spacing dv^(1/3) = 0.2500

                     log10-error:    total        iterations:
           time      wfs    density  energy       fermi  poisson
iter:   1  01:26:23          +inf    -5.121711    0      1      
iter:   2  01:26:25         -4.91    -5.121711    0      1      
iter:   3  01:26:26         -5.13    -5.121711    0      1      

Converged after 3 iterations.

Dipole moment: (-0.064018, -0.100595, -0.038347) |e|*Ang

Energy contributions relative to reference atoms: (reference = -26392.251266)

Kinetic:        +11.122563
Potential:       -9.969691
External:        +0.000000
XC:              -6.327810
Entropy (-ST):   +0.000000
Local:           +0.053226
--------------------------
Free energy:     -5.121711
Extrapolated:    -5.121711

Fermi level: -2.47008

 Band  Eigenvalues  Occupancy
    0    -27.96838    2.00000
    1    -27.96740    2.00000
    2    -27.96466    2.00000
    3    -27.95643    2.00000
    4    -27.95524    2.00000
    5    -27.95431    2.00000
    6    -27.95342    2.00000
    7    -27.95206    2.00000
    8    -27.95059    2.00000
    9    -27.94950    2.00000
   10    -27.94382    2.00000
   11    -27.94329    2.00000
   12    -27.93303    2.00000
   13    -27.93264    2.00000
   14    -27.92616    2.00000
   15    -27.86331    2.00000
   16    -27.83779    2.00000
   17    -27.83760    2.00000
   18     -4.22151    2.00000
   19     -3.06157    2.00000
   20     -3.05398    2.00000
   21     -1.88617    0.00000
   22     -1.74776    0.00000
   23     -1.74325    0.00000
   24     -1.39908    0.00000
   25     -0.81700    0.00000
   26     -0.81469    0.00000
   27     -0.43349    0.00000
   28     -0.43231    0.00000
   29     -0.38366    0.00000

Gap: 1.168 eV
Transition (v -> c):
  (s=0, k=0, n=20, [0.00, 0.00, 0.00]) -> (s=0, k=0, n=21, [0.00, 0.00, 0.00])

Forces in eV/Ang:
  0 Na    0.02080    0.05155    0.01331
  1 Na   -0.00149   -0.01395   -0.00417
  2 Na   -0.00002   -0.00663   -0.00649
  3 Na   -0.00368   -0.00964   -0.00032
  4 Na   -0.00419   -0.01361   -0.00222
  5 Na   -0.00370   -0.00896   -0.00642

System changes: positions 

Initializing position-dependent things.

Density initialized from wave functions
           .--------------------------------------.  
          /|                                      |  
         / |                                      |  
        /  |                                      |  
       /   |                                      |  
      /    |                                      |  
     /     |                                      |  
    /      |                                      |  
   /       |                                      |  
  /        |                                      |  
 *         |                                      |  
 |         |          Na                          |  
 |         |                                      |  
 |         |       Na      Na                     |  
 |         |                Na                    |  
 |         |                                      |  
 |         |                                      |  
 |         |             Na   Na                  |  
 |         |                                      |  
 |         |                                      |  
 |         .--------------------------------------.  
 |        /                                      /   
 |       /                                      /    
 |      /                                      /     
 |     /                                      /      
 |    /                                      /       
 |   /                                      /        
 |  /                                      /         
 | /                                      /          
 |/                                      /           
 *--------------------------------------*            

Positions:
   0 Na     8.225081    9.526754    8.666015    ( 0.0000,  0.0000,  0.0000)
   1 Na     6.416848    8.091869   10.965494    ( 0.0000,  0.0000,  0.0000)
   2 Na     5.009828    9.942536    8.316756    ( 0.0000,  0.0000,  0.0000)
   3 Na     7.208849    9.783630    5.577111    ( 0.0000,  0.0000,  0.0000)
   4 Na     9.989570    7.838864    6.503748    ( 0.0000,  0.0000,  0.0000)
   5 Na     9.474624    6.747627    9.817949    ( 0.0000,  0.0000,  0.0000)

Unit cell:
           periodic     x           y           z      points  spacing
  1. axis:    no    16.000000    0.000000    0.000000    64     0.2500
  2. axis:    no     0.000000   16.000000    0.000000    64     0.2500
  3. axis:    no     0.000000    0.000000   16.000000    64     0.2500

  Lengths:  16.000000  16.000000  16.000000
  Angles:   90.000000  90.000000  90.000000

Effective grid spacing dv^(1/3) = 0.2500

                     log10-error:    total        iterations:
           time      wfs    density  energy       fermi  poisson
iter:   1  01:26:29          +inf    -5.124086    0      1      
iter:   2  01:26:30         -3.25    -5.124044    0      1      
iter:   3  01:26:32         -3.50    -5.124029    0      1      
iter:   4  01:26:33         -3.84    -5.124028    0      1      
iter:   5  01:26:35         -4.23    -5.124028    0      1      

Converged after 5 iterations.

Dipole moment: (-0.063958, -0.098148, -0.038114) |e|*Ang

Energy contributions relative to reference atoms: (reference = -26392.251266)

Kinetic:        +10.899045
Potential:       -9.802408
External:        +0.000000
XC:              -6.273469
Entropy (-ST):   +0.000000
Local:           +0.052804
--------------------------
Free energy:     -5.124028
Extrapolated:    -5.124028

Fermi level: -2.47735

 Band  Eigenvalues  Occupancy
    0    -27.96844    2.00000
    1    -27.96742    2.00000
    2    -27.96564    2.00000
    3    -27.95634    2.00000
    4    -27.95559    2.00000
    5    -27.95442    2.00000
    6    -27.95371    2.00000
    7    -27.95275    2.00000
    8    -27.95121    2.00000
    9    -27.95021    2.00000
   10    -27.94405    2.00000
   11    -27.94368    2.00000
   12    -27.93353    2.00000
   13    -27.93311    2.00000
   14    -27.92676    2.00000
   15    -27.88612    2.00000
   16    -27.86013    2.00000
   17    -27.86004    2.00000
   18     -4.21928    2.00000
   19     -3.05869    2.00000
   20     -3.05311    2.00000
   21     -1.90159    0.00000
   22     -1.74708    0.00000
   23     -1.74264    0.00000
   24     -1.39428    0.00000
   25     -0.82544    0.00000
   26     -0.82410    0.00000
   27     -0.43263    0.00000
   28     -0.43156    0.00000
   29     -0.37793    0.00000

Gap: 1.152 eV
Transition (v -> c):
  (s=0, k=0, n=20, [0.00, 0.00, 0.00]) -> (s=0, k=0, n=21, [0.00, 0.00, 0.00])

Forces in eV/Ang:
  0 Na    0.01745    0.02857    0.01321
  1 Na    0.00437   -0.00849   -0.01278
  2 Na    0.00586   -0.00807   -0.00395
  3 Na   -0.00061   -0.01016    0.00431
  4 Na   -0.01033   -0.00820    0.00511
  5 Na   -0.00931    0.00247   -0.01097

System changes: positions 

Initializing position-dependent things.

Density initialized from wave functions
           .--------------------------------------.  
          /|                                      |  
         / |                                      |  
        /  |                                      |  
       /   |                                      |  
      /    |                                      |  
     /     |                                      |  
    /      |                                      |  
   /       |                                      |  
  /        |                                      |  
 *         |                                      |  
 |         |          Na                          |  
 |         |                                      |  
 |         |       Na      Na                     |  
 |         |                Na                    |  
 |         |                                      |  
 |         |                                      |  
 |         |             Na   Na                  |  
 |         |                                      |  
 |         |                                      |  
 |         .--------------------------------------.  
 |        /                                      /   
 |       /                                      /    
 |      /                                      /     
 |     /                                      /      
 |    /                                      /       
 |   /                                      /        
 |  /                                      /         
 | /                                      /          
 |/                                      /           
 *--------------------------------------*            

Positions:
   0 Na     8.239735    9.562762    8.675434    ( 0.0000,  0.0000,  0.0000)
   1 Na     6.415907    8.082097   10.962362    ( 0.0000,  0.0000,  0.0000)
   2 Na     5.009926    9.937801    8.312212    ( 0.0000,  0.0000,  0.0000)
   3 Na     7.206296    9.776782    5.576972    ( 0.0000,  0.0000,  0.0000)
   4 Na     9.986472    7.829326    6.502322    ( 0.0000,  0.0000,  0.0000)
   5 Na     9.471882    6.741507    9.813304    ( 0.0000,  0.0000,  0.0000)

Unit cell:
           periodic     x           y           z      points  spacing
  1. axis:    no    16.000000    0.000000    0.000000    64     0.2500
  2. axis:    no     0.000000   16.000000    0.000000    64     0.2500
  3. axis:    no     0.000000    0.000000   16.000000    64     0.2500

  Lengths:  16.000000  16.000000  16.000000
  Angles:   90.000000  90.000000  90.000000

Effective grid spacing dv^(1/3) = 0.2500

                     log10-error:    total        iterations:
           time      wfs    density  energy       fermi  poisson
iter:   1  01:26:38          +inf    -5.125367    0      1      
iter:   2  01:26:39         -3.24    -5.125322    0      1      
iter:   3  01:26:41         -3.50    -5.125306    0      1      
iter:   4  01:26:42         -3.84    -5.125305    0      1      
iter:   5  01:26:43         -4.25    -5.125305    0      1      

Converged after 5 iterations.

Dipole moment: (-0.063611, -0.095163, -0.037702) |e|*Ang

Energy contributions relative to reference atoms: (reference = -26392.251266)

Kinetic:        +10.707133
Potential:       -9.661800
External:        +0.000000
XC:              -6.223415
Entropy (-ST):   +0.000000
Local:           +0.052778
--------------------------
Free energy:     -5.125305
Extrapolated:    -5.125305

Fermi level: -2.48456

 Band  Eigenvalues  Occupancy
    0    -27.96836    2.00000
    1    -27.96755    2.00000
    2    -27.96599    2.00000
    3    -27.95549    2.00000
    4    -27.95507    2.00000
    5    -27.95383    2.00000
    6    -27.95317    2.00000
    7    -27.95244    2.00000
    8    -27.95065    2.00000
    9    -27.94998    2.00000
   10    -27.94343    2.00000
   11    -27.94306    2.00000
   12    -27.93314    2.00000
   13    -27.93269    2.00000
   14    -27.92637    2.00000
   15    -27.90926    2.00000
   16    -27.88300    2.00000
   17    -27.88295    2.00000
   18     -4.21686    2.00000
   19     -3.05555    2.00000
   20     -3.05195    2.00000
   21     -1.91718    0.00000
   22     -1.74611    0.00000
   23     -1.74169    0.00000
   24     -1.38936    0.00000
   25     -0.83370    0.00000
   26     -0.83323    0.00000
   27     -0.43168    0.00000
   28     -0.43024    0.00000
   29     -0.37198    0.00000

Gap: 1.135 eV
Transition (v -> c):
  (s=0, k=0, n=20, [0.00, 0.00, 0.00]) -> (s=0, k=0, n=21, [0.00, 0.00, 0.00])

Forces in eV/Ang:
  0 Na    0.01207    0.00553    0.00946
  1 Na    0.00972   -0.00284   -0.02063
  2 Na    0.01163   -0.00928   -0.00118
  3 Na    0.00288   -0.01022    0.00910
  4 Na   -0.01620   -0.00270    0.01227
  5 Na   -0.01421    0.01363   -0.01474

System changes: positions 

Initializing position-dependent things.

Density initialized from wave functions
           .--------------------------------------.  
          /|                                      |  
         / |                                      |  
        /  |                                      |  
       /   |                                      |  
      /    |                                      |  
     /     |                                      |  
    /      |                                      |  
   /       |                                      |  
  /        |                                      |  
 *         |                                      |  
 |         |          Na                          |  
 |         |                                      |  
 |         |       Na      Na                     |  
 |         |                Na                    |  
 |         |                                      |  
 |         |                                      |  
 |         |             Na   Na                  |  
 |         |                                      |  
 |         |                                      |  
 |         .--------------------------------------.  
 |        /                                      /   
 |       /                                      /    
 |      /                                      /     
 |     /                                      /      
 |    /                                      /       
 |   /                                      /        
 |  /                                      /         
 | /                                      /          
 |/                                      /           
 *--------------------------------------*            

Positions:
   0 Na     8.250201    9.588047    8.682182    ( 0.0000,  0.0000,  0.0000)
   1 Na     6.415426    8.075205   10.959784    ( 0.0000,  0.0000,  0.0000)
   2 Na     5.010210    9.934311    8.309011    ( 0.0000,  0.0000,  0.0000)
   3 Na     7.204565    9.771796    5.577044    ( 0.0000,  0.0000,  0.0000)
   4 Na     9.983999    7.822599    6.501553    ( 0.0000,  0.0000,  0.0000)
   5 Na     9.469696    6.737476    9.809779    ( 0.0000,  0.0000,  0.0000)

Unit cell:
           periodic     x           y           z      points  spacing
  1. axis:    no    16.000000    0.000000    0.000000    64     0.2500
  2. axis:    no     0.000000   16.000000    0.000000    64     0.2500
  3. axis:    no     0.000000    0.000000   16.000000    64     0.2500

  Lengths:  16.000000  16.000000  16.000000
  Angles:   90.000000  90.000000  90.000000

Effective grid spacing dv^(1/3) = 0.2500

                     log10-error:    total        iterations:
           time      wfs    density  energy       fermi  poisson
iter:   1  01:26:46          +inf    -5.125654    0      1      
iter:   2  01:26:48         -3.39    -5.125631    0      1      
iter:   3  01:26:49         -3.65    -5.125622    0      1      
iter:   4  01:26:51         -4.00    -5.125622    0      1      
iter:   5  01:26:52         -4.44    -5.125622    0      1      

Converged after 5 iterations.

Dipole moment: (-0.063212, -0.092741, -0.037310) |e|*Ang

Energy contributions relative to reference atoms: (reference = -26392.251266)

Kinetic:        +10.589490
Potential:       -9.576951
External:        +0.000000
XC:              -6.191022
Entropy (-ST):   +0.000000
Local:           +0.052862
--------------------------
Free energy:     -5.125622
Extrapolated:    -5.125622

Fermi level: -2.48972

 Band  Eigenvalues  Occupancy
    0    -27.96913    2.00000
    1    -27.96798    2.00000
    2    -27.96650    2.00000
    3    -27.95471    2.00000
    4    -27.95436    2.00000
    5    -27.95315    2.00000
    6    -27.95238    2.00000
    7    -27.95171    2.00000
    8    -27.94984    2.00000
    9    -27.94937    2.00000
   10    -27.94265    2.00000
   11    -27.94215    2.00000
   12    -27.93251    2.00000
   13    -27.93204    2.00000
   14    -27.92565    2.00000
   15    -27.92512    2.00000
   16    -27.89915    2.00000
   17    -27.89903    2.00000
   18     -4.21530    2.00000
   19     -3.05331    2.00000
   20     -3.05106    2.00000
   21     -1.92838    0.00000
   22     -1.74521    0.00000
   23     -1.74081    0.00000
   24     -1.38591    0.00000
   25     -0.83978    0.00000
   26     -0.83924    0.00000
   27     -0.43076    0.00000
   28     -0.42899    0.00000
   29     -0.36766    0.00000

Gap: 1.123 eV
Transition (v -> c):
  (s=0, k=0, n=20, [0.00, 0.00, 0.00]) -> (s=0, k=0, n=21, [0.00, 0.00, 0.00])

Forces in eV/Ang:
  0 Na    0.00881   -0.00895    0.00730
  1 Na    0.01313    0.00136   -0.02528
  2 Na    0.01555   -0.00990    0.00087
  3 Na    0.00541   -0.01005    0.01247
  4 Na   -0.01982    0.00166    0.01683
  5 Na   -0.01704    0.02114   -0.01676

System changes: positions 

Initializing position-dependent things.

Density initialized from wave functions
           .--------------------------------------.  
          /|                                      |  
         / |                                      |  
        /  |                                      |  
       /   |                                      |  
      /    |                                      |  
     /     |                                      |  
    /      |                                      |  
   /       |                                      |  
  /        |                                      |  
 *         |                                      |  
 |         |          Na                          |  
 |         |                                      |  
 |         |       Na      Na                     |  
 |         |                Na                    |  
 |         |                                      |  
 |         |                                      |  
 |         |             Na   Na                  |  
 |         |                                      |  
 |         |                                      |  
 |         .--------------------------------------.  
 |        /                                      /   
 |       /                                      /    
 |      /                                      /     
 |     /                                      /      
 |    /                                      /       
 |   /                                      /        
 |  /                                      /         
 | /                                      /          
 |/                                      /           
 *--------------------------------------*            

Positions:
   0 Na     8.252285    9.592624    8.683550    ( 0.0000,  0.0000,  0.0000)
   1 Na     6.415532    8.073936   10.958919    ( 0.0000,  0.0000,  0.0000)
   2 Na     5.010494    9.933505    8.308425    ( 0.0000,  0.0000,  0.0000)
   3 Na     7.204321    9.770709    5.577243    ( 0.0000,  0.0000,  0.0000)
   4 Na     9.983234    7.821365    6.501662    ( 0.0000,  0.0000,  0.0000)
   5 Na     9.469028    6.737041    9.808866    ( 0.0000,  0.0000,  0.0000)

Unit cell:
           periodic     x           y           z      points  spacing
  1. axis:    no    16.000000    0.000000    0.000000    64     0.2500
  2. axis:    no     0.000000   16.000000    0.000000    64     0.2500
  3. axis:    no     0.000000    0.000000   16.000000    64     0.2500

  Lengths:  16.000000  16.000000  16.000000
  Angles:   90.000000  90.000000  90.000000

Effective grid spacing dv^(1/3) = 0.2500

                     log10-error:    total        iterations:
           time      wfs    density  energy       fermi  poisson
iter:   1  01:26:55          +inf    -5.125681    0      1      
iter:   2  01:26:56         -4.18    -5.125680    0      1      
iter:   3  01:26:58         -4.45    -5.125680    0      1      

Converged after 3 iterations.

Dipole moment: (-0.063180, -0.092605, -0.037288) |e|*Ang

Energy contributions relative to reference atoms: (reference = -26392.251266)

Kinetic:        +10.597793
Potential:       -9.586670
External:        +0.000000
XC:              -6.190598
Entropy (-ST):   +0.000000
Local:           +0.053795
--------------------------
Free energy:     -5.125680
Extrapolated:    -5.125680

Fermi level: -2.49055

 Band  Eigenvalues  Occupancy
    0    -27.96852    2.00000
    1    -27.96717    2.00000
    2    -27.96579    2.00000
    3    -27.95356    2.00000
    4    -27.95316    2.00000
    5    -27.95191    2.00000
    6    -27.95119    2.00000
    7    -27.95052    2.00000
    8    -27.94865    2.00000
    9    -27.94820    2.00000
   10    -27.94145    2.00000
   11    -27.94093    2.00000
   12    -27.93137    2.00000
   13    -27.93084    2.00000
   14    -27.92725    2.00000
   15    -27.92445    2.00000
   16    -27.90144    2.00000
   17    -27.90131    2.00000
   18     -4.21509    2.00000
   19     -3.05273    2.00000
   20     -3.05071    2.00000
   21     -1.93040    0.00000
   22     -1.74466    0.00000
   23     -1.74033    0.00000
   24     -1.38518    0.00000
   25     -0.84077    0.00000
   26     -0.84014    0.00000
   27     -0.43014    0.00000
   28     -0.42835    0.00000
   29     -0.36662    0.00000

Gap: 1.120 eV
Transition (v -> c):
  (s=0, k=0, n=20, [0.00, 0.00, 0.00]) -> (s=0, k=0, n=21, [0.00, 0.00, 0.00])

Forces in eV/Ang:
  0 Na    0.00870   -0.01110    0.00691
  1 Na    0.01351    0.00231   -0.02573
  2 Na    0.01589   -0.00983    0.00138
  3 Na    0.00595   -0.00980    0.01280
  4 Na   -0.02013    0.00272    0.01744
  5 Na   -0.01705    0.02247   -0.01671

System changes: positions 

Initializing position-dependent things.

Density initialized from wave functions
           .--------------------------------------.  
          /|                                      |  
         / |                                      |  
        /  |                                      |  
       /   |                                      |  
      /    |                                      |  
     /     |                                      |  
    /      |                                      |  
   /       |                                      |  
  /        |                                      |  
 *         |                                      |  
 |         |          Na                          |  
 |         |                                      |  
 |         |       Na      Na                     |  
 |         |                Na                    |  
 |         |                                      |  
 |         |                                      |  
 |         |             Na   Na                  |  
 |         |                                      |  
 |         |                                      |  
 |         .--------------------------------------.  
 |        /                                      /   
 |       /                                      /    
 |      /                                      /     
 |     /                                      /      
 |    /                                      /       
 |   /                                      /        
 |  /                                      /         
 | /                                      /          
 |/                                      /           
 *--------------------------------------*            

Positions:
   0 Na     8.261694    9.611404    8.689801    ( 0.0000,  0.0000,  0.0000)
   1 Na     6.416805    8.068654   10.953640    ( 0.0000,  0.0000,  0.0000)
   2 Na     5.012666    9.929446    8.306011    ( 0.0000,  0.0000,  0.0000)
   3 Na     7.203640    9.765457    5.578863    ( 0.0000,  0.0000,  0.0000)
   4 Na     9.978726    7.816256    6.503196    ( 0.0000,  0.0000,  0.0000)
   5 Na     9.465118    6.736553    9.803939    ( 0.0000,  0.0000,  0.0000)

Unit cell:
           periodic     x           y           z      points  spacing
  1. axis:    no    16.000000    0.000000    0.000000    64     0.2500
  2. axis:    no     0.000000   16.000000    0.000000    64     0.2500
  3. axis:    no     0.000000    0.000000   16.000000    64     0.2500

  Lengths:  16.000000  16.000000  16.000000
  Angles:   90.000000  90.000000  90.000000

Effective grid spacing dv^(1/3) = 0.2500

                     log10-error:    total        iterations:
           time      wfs    density  energy       fermi  poisson
iter:   1  01:27:01          +inf    -5.126012    0      1      
iter:   2  01:27:02         -3.60    -5.126003    0      1      
iter:   3  01:27:04         -3.90    -5.126001    0      1      
iter:   4  01:27:05         -4.30    -5.126001    0      1      

Converged after 4 iterations.

Dipole moment: (-0.062930, -0.090814, -0.036994) |e|*Ang

Energy contributions relative to reference atoms: (reference = -26392.251266)

Kinetic:        +10.543047
Potential:       -9.544249
External:        +0.000000
XC:              -6.178782
Entropy (-ST):   +0.000000
Local:           +0.053983
--------------------------
Free energy:     -5.126001
Extrapolated:    -5.126001

Fermi level: -2.49540

 Band  Eigenvalues  Occupancy
    0    -27.97108    2.00000
    1    -27.96834    2.00000
    2    -27.96738    2.00000
    3    -27.95271    2.00000
    4    -27.95198    2.00000
    5    -27.95068    2.00000
    6    -27.95003    2.00000
    7    -27.94932    2.00000
    8    -27.94755    2.00000
    9    -27.94696    2.00000
   10    -27.94026    2.00000
   11    -27.93955    2.00000
   12    -27.93786    2.00000
   13    -27.93035    2.00000
   14    -27.92976    2.00000
   15    -27.92316    2.00000
   16    -27.91356    2.00000
   17    -27.91334    2.00000
   18     -4.21667    2.00000
   19     -3.05179    2.00000
   20     -3.05058    2.00000
   21     -1.94023    0.00000
   22     -1.74272    0.00000
   23     -1.73888    0.00000
   24     -1.38318    0.00000
   25     -0.84584    0.00000
   26     -0.84478    0.00000
   27     -0.42732    0.00000
   28     -0.42561    0.00000
   29     -0.36249    0.00000

Gap: 1.110 eV
Transition (v -> c):
  (s=0, k=0, n=20, [0.00, 0.00, 0.00]) -> (s=0, k=0, n=21, [0.00, 0.00, 0.00])

Forces in eV/Ang:
  0 Na    0.00524   -0.01829    0.00393
  1 Na    0.01372    0.00504   -0.02613
  2 Na    0.01765   -0.00941    0.00268
  3 Na    0.00738   -0.00864    0.01439
  4 Na   -0.02036    0.00547    0.01807
  5 Na   -0.01652    0.02418   -0.01583

System changes: positions 

Initializing position-dependent things.

Density initialized from wave functions
           .--------------------------------------.  
          /|                                      |  
         / |                                      |  
        /  |                                      |  
       /   |                                      |  
      /    |                                      |  
     /     |                                      |  
    /      |                                      |  
   /       |                                      |  
  /        |                                      |  
 *         |                                      |  
 |         |          Na                          |  
 |         |                                      |  
 |         |       Na      Na                     |  
 |         |                Na                    |  
 |         |                                      |  
 |         |                                      |  
 |         |             Na   Na                  |  
 |         |                                      |  
 |         |                                      |  
 |         .--------------------------------------.  
 |        /                                      /   
 |       /                                      /    
 |      /                                      /     
 |     /                                      /      
 |    /                                      /       
 |   /                                      /        
 |  /                                      /         
 | /                                      /          
 |/                                      /           
 *--------------------------------------*            

Positions:
   0 Na     8.272216    9.629475    8.696931    ( 0.0000,  0.0000,  0.0000)
   1 Na     6.419524    8.063420   10.945444    ( 0.0000,  0.0000,  0.0000)
   2 Na     5.016601    9.924177    8.303653    ( 0.0000,  0.0000,  0.0000)
   3 Na     7.203549    9.758967    5.581898    ( 0.0000,  0.0000,  0.0000)
   4 Na     9.971914    7.811231    6.506606    ( 0.0000,  0.0000,  0.0000)
   5 Na     9.459243    6.738371    9.797067    ( 0.0000,  0.0000,  0.0000)

Unit cell:
           periodic     x           y           z      points  spacing
  1. axis:    no    16.000000    0.000000    0.000000    64     0.2500
  2. axis:    no     0.000000   16.000000    0.000000    64     0.2500
  3. axis:    no     0.000000    0.000000   16.000000    64     0.2500

  Lengths:  16.000000  16.000000  16.000000
  Angles:   90.000000  90.000000  90.000000

Effective grid spacing dv^(1/3) = 0.2500

                     log10-error:    total        iterations:
           time      wfs    density  energy       fermi  poisson
iter:   1  01:27:08          +inf    -5.126493    0      1      
iter:   2  01:27:10         -3.59    -5.126482    0      1      
iter:   3  01:27:11         -3.98    -5.126480    0      1      
iter:   4  01:27:12         -4.32    -5.126480    0      1      

Converged after 4 iterations.

Dipole moment: (-0.062325, -0.088631, -0.036502) |e|*Ang

Energy contributions relative to reference atoms: (reference = -26392.251266)

Kinetic:        +10.567943
Potential:       -9.563232
External:        +0.000000
XC:              -6.184036
Entropy (-ST):   +0.000000
Local:           +0.052844
--------------------------
Free energy:     -5.126480
Extrapolated:    -5.126480

Fermi level: -2.50078

 Band  Eigenvalues  Occupancy
    0    -27.97724    2.00000
    1    -27.97108    2.00000
    2    -27.97035    2.00000
    3    -27.95131    2.00000
    4    -27.94993    2.00000
    5    -27.94859    2.00000
    6    -27.94810    2.00000
    7    -27.94735    2.00000
    8    -27.94566    2.00000
    9    -27.94489    2.00000
   10    -27.94416    2.00000
   11    -27.93821    2.00000
   12    -27.93724    2.00000
   13    -27.92919    2.00000
   14    -27.92854    2.00000
   15    -27.92341    2.00000
   16    -27.92300    2.00000
   17    -27.92075    2.00000
   18     -4.22054    2.00000
   19     -3.05165    2.00000
   20     -3.05056    2.00000
   21     -1.95099    0.00000
   22     -1.73980    0.00000
   23     -1.73644    0.00000
   24     -1.38156    0.00000
   25     -0.85095    0.00000
   26     -0.84951    0.00000
   27     -0.42252    0.00000
   28     -0.42120    0.00000
   29     -0.35748    0.00000

Gap: 1.100 eV
Transition (v -> c):
  (s=0, k=0, n=20, [0.00, 0.00, 0.00]) -> (s=0, k=0, n=21, [0.00, 0.00, 0.00])

Forces in eV/Ang:
  0 Na    0.00061   -0.02241   -0.00020
  1 Na    0.01208    0.00681   -0.02505
  2 Na    0.01832   -0.00874    0.00381
  3 Na    0.00821   -0.00731    0.01535
  4 Na   -0.01899    0.00787    0.01658
  5 Na   -0.01450    0.02285   -0.01346

System changes: positions 

Initializing position-dependent things.

Density initialized from wave functions
           .--------------------------------------.  
          /|                                      |  
         / |                                      |  
        /  |                                      |  
       /   |                                      |  
      /    |                                      |  
     /     |                                      |  
    /      |                                      |  
   /       |                                      |  
  /        |                                      |  
 *         |                                      |  
 |         |          Na                          |  
 |         |                                      |  
 |         |       Na      Na                     |  
 |         |                Na                    |  
 |         |                                      |  
 |         |                                      |  
 |         |             Na   Na                  |  
 |         |                                      |  
 |         |                                      |  
 |         .--------------------------------------.  
 |        /                                      /   
 |       /                                      /    
 |      /                                      /     
 |     /                                      /      
 |    /                                      /       
 |   /                                      /        
 |  /                                      /         
 | /                                      /          
 |/                                      /           
 *--------------------------------------*            

Positions:
   0 Na     8.288096    9.651045    8.707952    ( 0.0000,  0.0000,  0.0000)
   1 Na     6.426177    8.056827   10.928482    ( 0.0000,  0.0000,  0.0000)
   2 Na     5.025559    9.914743    8.300766    ( 0.0000,  0.0000,  0.0000)
   3 Na     7.204746    9.747916    5.588936    ( 0.0000,  0.0000,  0.0000)
   4 Na     9.958103    7.805006    6.515096    ( 0.0000,  0.0000,  0.0000)
   5 Na     9.447391    6.745763    9.783983    ( 0.0000,  0.0000,  0.0000)

Unit cell:
           periodic     x           y           z      points  spacing
  1. axis:    no    16.000000    0.000000    0.000000    64     0.2500
  2. axis:    no     0.000000   16.000000    0.000000    64     0.2500
  3. axis:    no     0.000000    0.000000   16.000000    64     0.2500

  Lengths:  16.000000  16.000000  16.000000
  Angles:   90.000000  90.000000  90.000000

Effective grid spacing dv^(1/3) = 0.2500

                     log10-error:    total        iterations:
           time      wfs    density  energy       fermi  poisson
iter:   1  01:27:15          +inf    -5.127404    0      1      
iter:   2  01:27:17         -3.30    -5.127363    0      1      
iter:   3  01:27:18         -3.66    -5.127358    0      1      
iter:   4  01:27:20         -3.85    -5.127357    0      1      
iter:   5  01:27:21         -4.29    -5.127357    0      1      

Converged after 5 iterations.

Dipole moment: (-0.060576, -0.084820, -0.035128) |e|*Ang

Energy contributions relative to reference atoms: (reference = -26392.251266)

Kinetic:        +10.724685
Potential:       -9.679122
External:        +0.000000
XC:              -6.225904
Entropy (-ST):   +0.000000
Local:           +0.052984
--------------------------
Free energy:     -5.127357
Extrapolated:    -5.127357

Fermi level: -2.50870

 Band  Eigenvalues  Occupancy
    0    -27.99118    2.00000
    1    -27.97818    2.00000
    2    -27.97733    2.00000
    3    -27.94676    2.00000
    4    -27.94517    2.00000
    5    -27.94416    2.00000
    6    -27.94303    2.00000
    7    -27.94255    2.00000
    8    -27.94122    2.00000
    9    -27.93950    2.00000
   10    -27.93837    2.00000
   11    -27.93255    2.00000
   12    -27.93189    2.00000
   13    -27.93154    2.00000
   14    -27.93063    2.00000
   15    -27.92171    2.00000
   16    -27.92047    2.00000
   17    -27.91404    2.00000
   18     -4.23056    2.00000
   19     -3.05266    2.00000
   20     -3.05073    2.00000
   21     -1.96667    0.00000
   22     -1.73431    0.00000
   23     -1.72981    0.00000
   24     -1.38021    0.00000
   25     -0.85749    0.00000
   26     -0.85567    0.00000
   27     -0.41160    0.00000
   28     -0.41146    0.00000
   29     -0.34883    0.00000

Gap: 1.084 eV
Transition (v -> c):
  (s=0, k=0, n=20, [0.00, 0.00, 0.00]) -> (s=0, k=0, n=21, [0.00, 0.00, 0.00])

Forces in eV/Ang:
  0 Na   -0.00662   -0.02084   -0.00701
  1 Na    0.00692    0.00763   -0.01926
  2 Na    0.01606   -0.00600    0.00496
  3 Na    0.00772   -0.00401    0.01380
  4 Na   -0.01192    0.00888    0.00891
  5 Na   -0.00681    0.01336   -0.00570

System changes: positions 

Initializing position-dependent things.

Density initialized from wave functions
           .--------------------------------------.  
          /|                                      |  
         / |                                      |  
        /  |                                      |  
       /   |                                      |  
      /    |                                      |  
     /     |                                      |  
    /      |                                      |  
   /       |                                      |  
  /        |                                      |  
 *         |                                      |  
 |         |          Na                          |  
 |         |                                      |  
 |         |       Na      Na                     |  
 |         |                Na                    |  
 |         |                                      |  
 |         |                                      |  
 |         |             Na   Na                  |  
 |         |                                      |  
 |         |                                      |  
 |         .--------------------------------------.  
 |        /                                      /   
 |       /                                      /    
 |      /                                      /     
 |     /                                      /      
 |    /                                      /       
 |   /                                      /        
 |  /                                      /         
 | /                                      /          
 |/                                      /           
 *--------------------------------------*            

Positions:
   0 Na     8.291834    9.648624    8.710873    ( 0.0000,  0.0000,  0.0000)
   1 Na     6.431136    8.057001   10.918322    ( 0.0000,  0.0000,  0.0000)
   2 Na     5.031723    9.910532    8.300990    ( 0.0000,  0.0000,  0.0000)
   3 Na     7.206812    9.743622    5.593893    ( 0.0000,  0.0000,  0.0000)
   4 Na     9.950153    7.805332    6.521512    ( 0.0000,  0.0000,  0.0000)
   5 Na     9.440652    6.753641    9.777313    ( 0.0000,  0.0000,  0.0000)

Unit cell:
           periodic     x           y           z      points  spacing
  1. axis:    no    16.000000    0.000000    0.000000    64     0.2500
  2. axis:    no     0.000000   16.000000    0.000000    64     0.2500
  3. axis:    no     0.000000    0.000000   16.000000    64     0.2500

  Lengths:  16.000000  16.000000  16.000000
  Angles:   90.000000  90.000000  90.000000

Effective grid spacing dv^(1/3) = 0.2500

                     log10-error:    total        iterations:
           time      wfs    density  energy       fermi  poisson
iter:   1  01:27:24          +inf    -5.127957    0      1      
iter:   2  01:27:26         -3.35    -5.127928    0      1      
iter:   3  01:27:27         -3.62    -5.127920    0      1      
iter:   4  01:27:28         -3.83    -5.127920    0      1      
iter:   5  01:27:30         -4.46    -5.127918    0      1      

Converged after 5 iterations.

Dipole moment: (-0.059932, -0.084581, -0.034725) |e|*Ang

Energy contributions relative to reference atoms: (reference = -26392.251266)

Kinetic:        +10.926358
Potential:       -9.827462
External:        +0.000000
XC:              -6.280167
Entropy (-ST):   +0.000000
Local:           +0.053352
--------------------------
Free energy:     -5.127918
Extrapolated:    -5.127918

Fermi level: -2.51089

 Band  Eigenvalues  Occupancy
    0    -27.99121    2.00000
    1    -27.97764    2.00000
    2    -27.97684    2.00000
    3    -27.94324    2.00000
    4    -27.94200    2.00000
    5    -27.94054    2.00000
    6    -27.93964    2.00000
    7    -27.93880    2.00000
    8    -27.93757    2.00000
    9    -27.93529    2.00000
   10    -27.93446    2.00000
   11    -27.92919    2.00000
   12    -27.92891    2.00000
   13    -27.92814    2.00000
   14    -27.92668    2.00000
   15    -27.91784    2.00000
   16    -27.91638    2.00000
   17    -27.90961    2.00000
   18     -4.23874    2.00000
   19     -3.05412    2.00000
   20     -3.05220    2.00000
   21     -1.96959    0.00000
   22     -1.73137    0.00000
   23     -1.72541    0.00000
   24     -1.38158    0.00000
   25     -0.85756    0.00000
   26     -0.85601    0.00000
   27     -0.40541    0.00000
   28     -0.40452    0.00000
   29     -0.34564    0.00000

Gap: 1.083 eV
Transition (v -> c):
  (s=0, k=0, n=20, [0.00, 0.00, 0.00]) -> (s=0, k=0, n=21, [0.00, 0.00, 0.00])

Forces in eV/Ang:
  0 Na   -0.00706   -0.00897   -0.00890
  1 Na    0.00072    0.00532   -0.01154
  2 Na    0.01116   -0.00416    0.00385
  3 Na    0.00552   -0.00199    0.01019
  4 Na   -0.00559    0.00609    0.00022
  5 Na    0.00089    0.00175    0.00154

Timing:                                       incl.     excl.
--------------------------------------------------------------------
Basic WFS set positions:                      0.007     0.004   0.0% |
 Redistribute:                                0.003     0.003   0.0% |
Basis functions set positions:                0.635     0.635   0.7% |
Forces:                                      14.523     0.685   0.8% |
 LCAO forces:                                13.838     0.005   0.0% |
  Atomic Hamiltonian force:                   0.020     0.020   0.0% |
  Initial:                                    0.002     0.000   0.0% |
   Get density matrix:                        0.002     0.002   0.0% |
  Paw correction:                             0.018     0.018   0.0% |
  Potential:                                 13.421    13.421  15.2% |-----|
  TCI derivative:                             0.371     0.371   0.4% |
  Wait for sum:                               0.000     0.000   0.0% |
LCAO WFS Initialize:                         10.766     0.098   0.1% |
 Density initialized from wave functions:     3.554     0.683   0.8% |
  Calculate density matrix:                   0.002     0.002   0.0% |
  Construct density:                          2.869     2.869   3.2% ||
  Symmetrize density:                         0.000     0.000   0.0% |
 Hamiltonian:                                 7.114     0.002   0.0% |
  Atomic:                                     0.892     0.012   0.0% |
   XC Correction:                             0.880     0.880   1.0% |
  Calculate atomic Hamiltonians:              0.055     0.055   0.1% |
  Communicate:                                0.000     0.000   0.0% |
  Hartree integrate/restrict:                 0.423     0.423   0.5% |
  Initialize Hamiltonian:                     0.000     0.000   0.0% |
  Poisson:                                    2.468     0.143   0.2% |
   Communicate bwd 0:                         0.292     0.292   0.3% |
   Communicate bwd 1:                         0.186     0.186   0.2% |
   Communicate fwd 0:                         0.263     0.263   0.3% |
   Communicate fwd 1:                         0.295     0.295   0.3% |
   fft:                                       0.385     0.385   0.4% |
   fft2:                                      0.905     0.905   1.0% |
  XC 3D grid:                                 3.215     3.215   3.6% ||
  vbar:                                       0.060     0.060   0.1% |
P tci:                                        0.237     0.237   0.3% |
Redistribute:                                 0.002     0.002   0.0% |
SCF-cycle:                                   58.358     0.019   0.0% |
 Density:                                    15.644     0.001   0.0% |
  Atomic density matrices:                    0.043     0.043   0.0% |
  Mix:                                        2.962     2.962   3.3% ||
  Multipole moments:                          0.010     0.010   0.0% |
  Normalize:                                  0.013     0.013   0.0% |
  Pseudo density:                            12.615     0.054   0.1% |
   Calculate density matrix:                  0.004     0.004   0.0% |
   Construct density:                        12.556    12.556  14.2% |-----|
   Symmetrize density:                        0.002     0.002   0.0% |
 Hamiltonian:                                27.727     0.006   0.0% |
  Atomic:                                     3.469     0.046   0.1% |
   XC Correction:                             3.423     3.423   3.9% |-|
  Calculate atomic Hamiltonians:              0.209     0.209   0.2% |
  Communicate:                                0.001     0.001   0.0% |
  Hartree integrate/restrict:                 1.737     1.737   2.0% ||
  Poisson:                                    9.574     0.533   0.6% |
   Communicate bwd 0:                         1.137     1.137   1.3% ||
   Communicate bwd 1:                         0.725     0.725   0.8% |
   Communicate fwd 0:                         1.001     1.001   1.1% |
   Communicate fwd 1:                         1.150     1.150   1.3% ||
   fft:                                       1.494     1.494   1.7% ||
   fft2:                                      3.532     3.532   4.0% |-|
  XC 3D grid:                                12.512    12.512  14.1% |-----|
  vbar:                                       0.219     0.219   0.2% |
 LCAO eigensolver:                           14.968     0.007   0.0% |
  Calculate projections:                      0.005     0.005   0.0% |
  DenseAtomicCorrection:                      0.023     0.023   0.0% |
  Distribute overlap matrix:                  0.002     0.002   0.0% |
  Orbital Layouts:                            0.095     0.095   0.1% |
  Potential matrix:                          14.836    14.836  16.8% |------|
ST tci:                                       0.078     0.078   0.1% |
Set symmetry:                                 0.001     0.001   0.0% |
TCI: Evaluate splines:                        0.127     0.127   0.1% |
mktci:                                        0.014     0.014   0.0% |
Other:                                        3.763     3.763   4.3% |-|
--------------------------------------------------------------------
Total:                                                 88.511 100.0%

Memory usage: 625.23 MiB
Date: Tue Feb 18 01:27:32 2020
