
  ___ ___ ___ _ _ _  
 |   |   |_  | | | | 
 | | | | | . | | | | 
 |__ |  _|___|_____|  19.8.1
 |___|_|             

User:   hallborn@hebbe12-5
Date:   Tue Feb 18 11:19:46 2020
Arch:   x86_64
Pid:    3431
Python: 3.7.2
gpaw:   /apps/Hebbe7/software/MPI/intel/2019.1.144-GCC-8.2.0-2.31.1/impi/2018.4.274/GPAW/19.8.1-Python-3.7.2/lib/python3.7/site-packages/gpaw
_gpaw:  /apps/Hebbe7/software/MPI/intel/2019.1.144-GCC-8.2.0-2.31.1/impi/2018.4.274/GPAW/19.8.1-Python-3.7.2/bin/
        gpaw-python
ase:    /apps/Hebbe7/software/MPI/intel/2019.1.144-GCC-8.2.0-2.31.1/impi/2018.4.274/ASE/3.18.0-Python-3.7.2/lib/python3.7/site-packages/ase (version 3.18.0)
numpy:  /apps/Hebbe7/software/MPI/intel/2019.1.144-GCC-8.2.0-2.31.1/impi/2018.4.274/SciPy-bundle/2019.03/lib/python3.7/site-packages/numpy (version 1.16.2)
scipy:  /apps/Hebbe7/software/MPI/intel/2019.1.144-GCC-8.2.0-2.31.1/impi/2018.4.274/SciPy-bundle/2019.03/lib/python3.7/site-packages/scipy (version 1.2.1)
libxc:  4.3.4
units:  Angstrom and eV
cores:  1

Input parameters:
  basis: dzp
  h: 0.2
  setups: {Na: 1}
  xc: PBE

System changes: positions, numbers, cell, pbc, initial_charges, initial_magmoms 

Initialize ...

Na-setup:
  name: Sodium
  id: 8dbce52902f3add137ce7d12431c9cac
  Z: 11
  valence: 1
  core: 10
  charge: 0.0
  file: /apps/Common/Core/GPAW-setups/0.9.20000/Na.1.PBE.gz
  compensation charges: gauss, rc=0.43, lmax=2
  cutoffs: 2.36(filt), 3.60(core),
  valence states:
                energy  radius
    3s(1.00)    -2.744   1.349
    3p(0.00)    -0.743   1.349
    *s          24.468   1.349

  LCAO basis set for Na:
    Name: 1.dzp
    File: /apps/Common/Core/GPAW-setups/0.9.20000/Na.1.dzp.basis.gz
    Number of radial functions: 3
    Number of spherical harmonics: 5
      l=0, rc=11.7656 Bohr: 3s-sz confined orbital
      l=0, rc=7.1094 Bohr: 3s-dz split-valence wave
      l=1, rc=11.7656 Bohr: p-type Gaussian polarization

Reference energy: -26511.662975

Spin-paired calculation

Occupation numbers:
  Fermi-Dirac: width=0.0000 eV

Convergence criteria:
  Maximum total energy change: 0.0005 eV / electron
  Maximum integral of absolute density change: 0.0001 electrons
  Maximum integral of absolute eigenstate change: 4e-08 eV^2
  Maximum number of iterations: 333

Symmetries present (total): 1

  ( 1  0  0)
  ( 0  1  0)
  ( 0  0  1)

1 k-point (Gamma)
1 k-point in the irreducible part of the Brillouin zone
       k-points in crystal coordinates                weights
   0:     0.00000000    0.00000000    0.00000000          1/1

Wave functions: Uniform real-space grid
  Kinetic energy operator: 6*3+1=19 point O(h^6) finite-difference Laplacian
  ScaLapack parameters: grid=1x1, blocksize=None
  Wavefunction extrapolation:
    Improved wavefunction reuse through dual PAW basis 

Eigensolver
   Davidson(niter=2, smin=None, normalize=True) 

Densities:
  Coarse grid: 80*80*80 grid
  Fine grid: 160*160*160 grid
  Total Charge: 0.000000 

Density mixing:
  Method: separate
  Backend: pulay
  Linear mixing parameter: 0.25
  Mixing with 3 old densities
  No damping of long wave oscillations 

Hamiltonian:
  XC and Coulomb potentials evaluated on a 160*160*160 grid
  Using the PBE Exchange-Correlation functional
  Interpolation: tri-quintic (5. degree polynomial)
  Poisson solver: FastPoissonSolver using
    6*3+1=19 point O(h^6) finite-difference Laplacian stencil;
    FFT axes: [];
    FST axes: [0, 1, 2].
 

XC parameters: PBE with 2 nearest neighbor stencil

Memory estimate:
  Process memory now: 948.56 MiB
  Calculator: 305.34 MiB
    Density: 157.14 MiB
      Arrays: 99.53 MiB
      Localized functions: 35.04 MiB
      Mixer: 22.57 MiB
    Hamiltonian: 67.63 MiB
      Arrays: 65.10 MiB
      XC: 0.00 MiB
      Poisson: 0.00 MiB
      vbar: 2.53 MiB
    Wavefunctions: 80.58 MiB
      Arrays psit_nG: 30.09 MiB
      Eigensolver: 48.91 MiB
      Projections: 0.00 MiB
      Projectors: 1.58 MiB

Total number of cores used: 1

Number of atoms: 6
Number of atomic orbitals: 30
Number of bands in calculation: 8
Bands to converge: occupied states only
Number of valence electrons: 6

... initialized

Initializing position-dependent things.

Density initialized from atomic densities
Creating initial wave functions:
  8 bands from LCAO basis set

           .--------------------------------------.  
          /|                                      |  
         / |                                      |  
        /  |                                      |  
       /   |                                      |  
      /    |                                      |  
     /     |                                      |  
    /      |                                      |  
   /       |                                      |  
  /        |                                      |  
 *         |                                      |  
 |         |          Na                          |  
 |         |                                      |  
 |         |       Na      Na                     |  
 |         |                Na                    |  
 |         |                                      |  
 |         |                                      |  
 |         |             Na   Na                  |  
 |         |                                      |  
 |         |                                      |  
 |         .--------------------------------------.  
 |        /                                      /   
 |       /                                      /    
 |      /                                      /     
 |     /                                      /      
 |    /                                      /       
 |   /                                      /        
 |  /                                      /         
 | /                                      /          
 |/                                      /           
 *--------------------------------------*            

Positions:
   0 Na     8.210231    9.489933    8.656516    ( 0.0000,  0.0000,  0.0000)
   1 Na     6.417931    8.101846   10.968460    ( 0.0000,  0.0000,  0.0000)
   2 Na     5.009862    9.947279    8.321395    ( 0.0000,  0.0000,  0.0000)
   3 Na     7.211492    9.790525    5.577356    ( 0.0000,  0.0000,  0.0000)
   4 Na     9.992557    7.848605    6.505352    ( 0.0000,  0.0000,  0.0000)
   5 Na     9.477264    6.754058    9.822530    ( 0.0000,  0.0000,  0.0000)

Unit cell:
           periodic     x           y           z      points  spacing
  1. axis:    no    16.000000    0.000000    0.000000    80     0.2000
  2. axis:    no     0.000000   16.000000    0.000000    80     0.2000
  3. axis:    no     0.000000    0.000000   16.000000    80     0.2000

  Lengths:  16.000000  16.000000  16.000000
  Angles:   90.000000  90.000000  90.000000

Effective grid spacing dv^(1/3) = 0.2000

                     log10-error:    total        iterations:
           time      wfs    density  energy       fermi  poisson
iter:   1  11:19:59  +1.46   +inf    -5.165214    0      1      
iter:   2  11:20:05  -0.42  -0.47    -4.896453    0      1      
iter:   3  11:20:10  +0.11  -0.70    -4.841889    0      1      
iter:   4  11:20:16  -0.09  -1.14    -4.854647    0      1      
iter:   5  11:20:21  -0.37  -1.33    -4.859706    0      1      
iter:   6  11:20:27  -0.97  -1.52    -4.860026    0      1      
iter:   7  11:20:32  -0.47  -1.57    -4.865311    0      1      
iter:   8  11:20:38  -1.72  -1.50    -4.858480    0      1      
iter:   9  11:20:44  -1.50  -1.87    -4.858263    0      1      
iter:  10  11:20:49  -1.42  -1.98    -4.858770    0      1      
iter:  11  11:20:55  -2.88  -2.00    -4.858814    0      1      
iter:  12  11:21:00  -3.12  -2.59    -4.858833    0      1      
iter:  13  11:21:06  -3.47  -2.84    -4.858844    0      1      
iter:  14  11:21:11  -3.76  -3.00    -4.858850    0      1      
iter:  15  11:21:17  -3.92  -3.19    -4.858854    0      1      
iter:  16  11:21:22  -4.34  -3.43    -4.858855    0      1      
iter:  17  11:21:28  -4.70  -3.65    -4.858856    0      1      
iter:  18  11:21:34  -5.04  -4.18    -4.858856    0      1      
iter:  19  11:21:39  -5.31  -4.21    -4.858856    0      1      
iter:  20  11:21:45  -5.58  -4.24    -4.858856    0      1      
iter:  21  11:21:50  -5.65  -4.17    -4.858856    0      1      
iter:  22  11:21:56  -6.06  -3.92    -4.858856    0      1      
iter:  23  11:22:01  -6.30  -4.12    -4.858856    0      1      
iter:  24  11:22:07  -6.68  -4.56    -4.858856    0      1      
iter:  25  11:22:12  -7.10  -4.60    -4.858856    0      1      
iter:  26  11:22:18  -7.20  -4.47    -4.858856    0      1      
iter:  27  11:22:24  -7.38  -4.46    -4.858856    0      1      
iter:  28  11:22:29  -7.45  -4.71    -4.858856    0      1      

Converged after 28 iterations.

Dipole moment: (-0.091948, -0.110956, -0.032918) |e|*Ang

Energy contributions relative to reference atoms: (reference = -26511.662975)

Kinetic:        +11.856091
Potential:      -10.625308
External:        +0.000000
XC:              -6.088157
Entropy (-ST):   +0.000000
Local:           -0.001481
--------------------------
Free energy:     -4.858856
Extrapolated:    -4.858856

Fermi level: -2.41187

 Band  Eigenvalues  Occupancy
    0     -4.16321    2.00000
    1     -2.99829    2.00000
    2     -2.99106    2.00000
    3     -1.83269    0.00000
    4     -1.68093    0.00000
    5     -1.66732    0.00000
    6     -0.86322    0.00000
    7     -0.75281    0.00000

Gap: 1.158 eV
Transition (v -> c):
  (s=0, k=0, n=2, [0.00, 0.00, 0.00]) -> (s=0, k=0, n=3, [0.00, 0.00, 0.00])

Forces in eV/Ang:
  0 Na    0.05561    0.11635    0.03655
  1 Na   -0.04926   -0.03857    0.07574
  2 Na   -0.08831    0.02527   -0.00735
  3 Na   -0.02590    0.02094   -0.08999
  4 Na    0.06490   -0.04760   -0.06292
  5 Na    0.04753   -0.07813    0.04232

System changes: positions 

Initializing position-dependent things.

Density initialized from wave functions
           .--------------------------------------.  
          /|                                      |  
         / |                                      |  
        /  |                                      |  
       /   |                                      |  
      /    |                                      |  
     /     |                                      |  
    /      |                                      |  
   /       |                                      |  
  /        |                                      |  
 *         |                                      |  
 |         |          Na                          |  
 |         |                                      |  
 |         |       Na      Na                     |  
 |         |                Na                    |  
 |         |                                      |  
 |         |                                      |  
 |         |             Na   Na                  |  
 |         |                                      |  
 |         |                                      |  
 |         .--------------------------------------.  
 |        /                                      /   
 |       /                                      /    
 |      /                                      /     
 |     /                                      /      
 |    /                                      /       
 |   /                                      /        
 |  /                                      /         
 | /                                      /          
 |/                                      /           
 *--------------------------------------*            

Positions:
   0 Na     8.211025    9.491595    8.657038    ( 0.0000,  0.0000,  0.0000)
   1 Na     6.417227    8.101295   10.969542    ( 0.0000,  0.0000,  0.0000)
   2 Na     5.008601    9.947640    8.321290    ( 0.0000,  0.0000,  0.0000)
   3 Na     7.211122    9.790824    5.576070    ( 0.0000,  0.0000,  0.0000)
   4 Na     9.993484    7.847925    6.504453    ( 0.0000,  0.0000,  0.0000)
   5 Na     9.477943    6.752942    9.823135    ( 0.0000,  0.0000,  0.0000)

Unit cell:
           periodic     x           y           z      points  spacing
  1. axis:    no    16.000000    0.000000    0.000000    80     0.2000
  2. axis:    no     0.000000   16.000000    0.000000    80     0.2000
  3. axis:    no     0.000000    0.000000   16.000000    80     0.2000

  Lengths:  16.000000  16.000000  16.000000
  Angles:   90.000000  90.000000  90.000000

Effective grid spacing dv^(1/3) = 0.2000

                     log10-error:    total        iterations:
           time      wfs    density  energy       fermi  poisson
iter:   1  11:22:35  -3.21   +inf    -4.859787    0      1      
iter:   2  11:22:39  -3.98  -3.06    -4.859789    0      1      
iter:   3  11:22:44  -4.83  -3.21    -4.859788    0      1      
iter:   4  11:22:48  -5.28  -3.47    -4.859788    0      1      
iter:   5  11:22:52  -5.32  -3.94    -4.859788    0      1      
iter:   6  11:22:56  -6.17  -4.17    -4.859788    0      1      
iter:   7  11:23:01  -6.56  -4.29    -4.859788    0      1      
iter:   8  11:23:05  -6.45  -4.59    -4.859788    0      1      
iter:   9  11:23:09  -7.18  -4.64    -4.859788    0      1      
iter:  10  11:23:13  -7.45  -4.91    -4.859788    0      1      

Converged after 10 iterations.

Dipole moment: (-0.091996, -0.110875, -0.032882) |e|*Ang

Energy contributions relative to reference atoms: (reference = -26511.662975)

Kinetic:        +11.795318
Potential:      -10.577663
External:        +0.000000
XC:              -6.075975
Entropy (-ST):   +0.000000
Local:           -0.001467
--------------------------
Free energy:     -4.859788
Extrapolated:    -4.859788

Fermi level: -2.41249

 Band  Eigenvalues  Occupancy
    0     -4.16182    2.00000
    1     -2.99789    2.00000
    2     -2.99070    2.00000
    3     -1.83427    0.00000
    4     -1.68149    0.00000
    5     -1.66786    0.00000
    6     -1.05772    0.00000
    7     -0.78098    0.00000

Gap: 1.156 eV
Transition (v -> c):
  (s=0, k=0, n=2, [0.00, 0.00, 0.00]) -> (s=0, k=0, n=3, [0.00, 0.00, 0.00])

Forces in eV/Ang:
  0 Na    0.05464    0.11406    0.03588
  1 Na   -0.04814   -0.03784    0.07393
  2 Na   -0.08640    0.02469   -0.00722
  3 Na   -0.02536    0.02043   -0.08817
  4 Na    0.06339   -0.04671   -0.06148
  5 Na    0.04636   -0.07636    0.04132

System changes: positions 

Initializing position-dependent things.

Density initialized from wave functions
           .--------------------------------------.  
          /|                                      |  
         / |                                      |  
        /  |                                      |  
       /   |                                      |  
      /    |                                      |  
     /     |                                      |  
    /      |                                      |  
   /       |                                      |  
  /        |                                      |  
 *         |                                      |  
 |         |          Na                          |  
 |         |                                      |  
 |         |       Na      NNa                    |  
 |         |                                      |  
 |         |                                      |  
 |         |                                      |  
 |         |             Na   Na                  |  
 |         |                                      |  
 |         |                                      |  
 |         .--------------------------------------.  
 |        /                                      /   
 |       /                                      /    
 |      /                                      /     
 |     /                                      /      
 |    /                                      /       
 |   /                                      /        
 |  /                                      /         
 | /                                      /          
 |/                                      /           
 *--------------------------------------*            

Positions:
   0 Na     8.227651    9.526299    8.667955    ( 0.0000,  0.0000,  0.0000)
   1 Na     6.402579    8.089781   10.992034    ( 0.0000,  0.0000,  0.0000)
   2 Na     4.982312    9.955154    8.319093    ( 0.0000,  0.0000,  0.0000)
   3 Na     7.203407    9.797039    5.549244    ( 0.0000,  0.0000,  0.0000)
   4 Na    10.012770    7.833714    6.485747    ( 0.0000,  0.0000,  0.0000)
   5 Na     9.492047    6.729709    9.835706    ( 0.0000,  0.0000,  0.0000)

Unit cell:
           periodic     x           y           z      points  spacing
  1. axis:    no    16.000000    0.000000    0.000000    80     0.2000
  2. axis:    no     0.000000   16.000000    0.000000    80     0.2000
  3. axis:    no     0.000000    0.000000   16.000000    80     0.2000

  Lengths:  16.000000  16.000000  16.000000
  Angles:   90.000000  90.000000  90.000000

Effective grid spacing dv^(1/3) = 0.2000

                     log10-error:    total        iterations:
           time      wfs    density  energy       fermi  poisson
iter:   1  11:23:18  -0.60   +inf    -4.874630    0      1      
iter:   2  11:23:22  -1.37  -1.75    -4.875261    0      1      
iter:   3  11:23:27  -2.26  -1.87    -4.874710    0      1      
iter:   4  11:23:31  -2.85  -2.23    -4.874669    0      1      
iter:   5  11:23:35  -2.84  -2.54    -4.874690    0      1      
iter:   6  11:23:39  -3.51  -2.87    -4.874698    0      1      
iter:   7  11:23:44  -3.92  -2.99    -4.874705    0      1      
iter:   8  11:23:48  -4.09  -3.30    -4.874707    0      1      
iter:   9  11:23:52  -4.48  -3.49    -4.874708    0      1      
iter:  10  11:23:56  -4.82  -3.69    -4.874708    0      1      
iter:  11  11:24:01  -5.06  -3.80    -4.874709    0      1      
iter:  12  11:24:05  -5.42  -4.27    -4.874709    0      1      
iter:  13  11:24:09  -5.73  -4.22    -4.874709    0      1      
iter:  14  11:24:13  -6.08  -4.20    -4.874709    0      1      
iter:  15  11:24:18  -6.20  -3.94    -4.874709    0      1      
iter:  16  11:24:22  -6.34  -4.25    -4.874709    0      1      
iter:  17  11:24:26  -6.63  -4.60    -4.874709    0      1      
iter:  18  11:24:30  -6.97  -4.77    -4.874709    0      1      
iter:  19  11:24:34  -7.28  -5.08    -4.874709    0      1      
iter:  20  11:24:39  -7.57  -5.21    -4.874709    0      1      

Converged after 20 iterations.

Dipole moment: (-0.092720, -0.108224, -0.032009) |e|*Ang

Energy contributions relative to reference atoms: (reference = -26511.662975)

Kinetic:        +10.569682
Potential:       -9.615339
External:        +0.000000
XC:              -5.827680
Entropy (-ST):   +0.000000
Local:           -0.001372
--------------------------
Free energy:     -4.874709
Extrapolated:    -4.874709

Fermi level: -2.41203

 Band  Eigenvalues  Occupancy
    0     -4.13260    2.00000
    1     -2.98901    2.00000
    2     -2.98274    2.00000
    3     -1.84131    0.00000
    4     -1.69050    0.00000
    5     -1.67606    0.00000
    6     -1.30017    0.00000
    7     -0.80345    0.00000

Gap: 1.141 eV
Transition (v -> c):
  (s=0, k=0, n=2, [0.00, 0.00, 0.00]) -> (s=0, k=0, n=3, [0.00, 0.00, 0.00])

Forces in eV/Ang:
  0 Na    0.03485    0.06728    0.02249
  1 Na   -0.02567   -0.02277    0.03789
  2 Na   -0.04752    0.01279   -0.00442
  3 Na   -0.01447    0.01065   -0.05064
  4 Na    0.03335   -0.02784   -0.03205
  5 Na    0.02371   -0.04094    0.02221

System changes: positions 

Initializing position-dependent things.

Density initialized from wave functions
           .--------------------------------------.  
          /|                                      |  
         / |                                      |  
        /  |                                      |  
       /   |                                      |  
      /    |                                      |  
     /     |                                      |  
    /      |                                      |  
   /       |                                      |  
  /        |                                      |  
 *         |                                      |  
 |         |          Na                          |  
 |         |                                      |  
 |         |       Na      NNa                    |  
 |         |                                      |  
 |         |                                      |  
 |         |                                      |  
 |         |             Na   Na                  |  
 |         |                                      |  
 |         |                                      |  
 |         .--------------------------------------.  
 |        /                                      /   
 |       /                                      /    
 |      /                                      /     
 |     /                                      /      
 |    /                                      /       
 |   /                                      /        
 |  /                                      /         
 | /                                      /          
 |/                                      /           
 *--------------------------------------*            

Positions:
   0 Na     8.244329    9.560972    8.678895    ( 0.0000,  0.0000,  0.0000)
   1 Na     6.388014    8.078267   11.014361    ( 0.0000,  0.0000,  0.0000)
   2 Na     4.956136    9.962616    8.316895    ( 0.0000,  0.0000,  0.0000)
   3 Na     7.195710    9.803212    5.522478    ( 0.0000,  0.0000,  0.0000)
   4 Na    10.031936    7.819508    6.467165    ( 0.0000,  0.0000,  0.0000)
   5 Na     9.506046    6.706602    9.848210    ( 0.0000,  0.0000,  0.0000)

Unit cell:
           periodic     x           y           z      points  spacing
  1. axis:    no    16.000000    0.000000    0.000000    80     0.2000
  2. axis:    no     0.000000   16.000000    0.000000    80     0.2000
  3. axis:    no     0.000000    0.000000   16.000000    80     0.2000

  Lengths:  16.000000  16.000000  16.000000
  Angles:   90.000000  90.000000  90.000000

Effective grid spacing dv^(1/3) = 0.2000

                     log10-error:    total        iterations:
           time      wfs    density  energy       fermi  poisson
iter:   1  11:24:43  -0.64   +inf    -4.881751    0      1      
iter:   2  11:24:48  -1.47  -1.73    -4.882003    0      1      
iter:   3  11:24:52  -2.21  -1.86    -4.881376    0      1      
iter:   4  11:24:56  -2.88  -2.41    -4.881403    0      1      
iter:   5  11:25:00  -3.21  -2.60    -4.881430    0      1      
iter:   6  11:25:05  -3.55  -2.91    -4.881441    0      1      
iter:   7  11:25:09  -3.86  -3.04    -4.881447    0      1      
iter:   8  11:25:13  -4.11  -3.25    -4.881449    0      1      
iter:   9  11:25:17  -4.48  -3.58    -4.881450    0      1      
iter:  10  11:25:22  -4.81  -3.72    -4.881450    0      1      
iter:  11  11:25:26  -5.04  -3.90    -4.881450    0      1      
iter:  12  11:25:30  -5.38  -4.20    -4.881451    0      1      
iter:  13  11:25:34  -5.67  -4.26    -4.881451    0      1      
iter:  14  11:25:39  -6.10  -4.73    -4.881451    0      1      
iter:  15  11:25:43  -6.44  -4.61    -4.881451    0      1      
iter:  16  11:25:47  -6.91  -4.62    -4.881451    0      1      
iter:  17  11:25:51  -7.10  -4.44    -4.881451    0      1      
iter:  18  11:25:56  -7.16  -4.55    -4.881451    0      1      
iter:  19  11:26:00  -7.55  -5.14    -4.881451    0      1      

Converged after 19 iterations.

Dipole moment: (-0.093342, -0.104922, -0.031005) |e|*Ang

Energy contributions relative to reference atoms: (reference = -26511.662975)

Kinetic:         +9.403929
Potential:       -8.697579
External:        +0.000000
XC:              -5.586509
Entropy (-ST):   +0.000000
Local:           -0.001292
--------------------------
Free energy:     -4.881451
Extrapolated:    -4.881451

Fermi level: -2.41195

 Band  Eigenvalues  Occupancy
    0     -4.10404    2.00000
    1     -2.98029    2.00000
    2     -2.97497    2.00000
    3     -1.84892    0.00000
    4     -1.69951    0.00000
    5     -1.68430    0.00000
    6     -1.34163    0.00000
    7     -0.81292    0.00000

Gap: 1.126 eV
Transition (v -> c):
  (s=0, k=0, n=2, [0.00, 0.00, 0.00]) -> (s=0, k=0, n=3, [0.00, 0.00, 0.00])

Forces in eV/Ang:
  0 Na    0.01429    0.02297    0.00885
  1 Na   -0.00506   -0.00870    0.00520
  2 Na   -0.01134    0.00181   -0.00137
  3 Na   -0.00407    0.00182   -0.01416
  4 Na    0.00658   -0.01034   -0.00535
  5 Na    0.00356   -0.00865    0.00506

System changes: positions 

Initializing position-dependent things.

Density initialized from wave functions
           .--------------------------------------.  
          /|                                      |  
         / |                                      |  
        /  |                                      |  
       /   |                                      |  
      /    |                                      |  
     /     |                                      |  
    /      |                                      |  
   /       |                                      |  
  /        |                                      |  
 *         |                                      |  
 |         |          Na                          |  
 |         |                                      |  
 |         |       Na      NNa                    |  
 |         |                                      |  
 |         |                                      |  
 |         |                                      |  
 |         |             Na   Na                  |  
 |         |                                      |  
 |         |                                      |  
 |         .--------------------------------------.  
 |        /                                      /   
 |       /                                      /    
 |      /                                      /     
 |     /                                      /      
 |    /                                      /       
 |   /                                      /        
 |  /                                      /         
 | /                                      /          
 |/                                      /           
 *--------------------------------------*            

Positions:
   0 Na     8.250454    9.573602    8.682905    ( 0.0000,  0.0000,  0.0000)
   1 Na     6.382785    8.074054   11.022335    ( 0.0000,  0.0000,  0.0000)
   2 Na     4.946701    9.965282    8.316097    ( 0.0000,  0.0000,  0.0000)
   3 Na     7.192924    9.805424    5.512790    ( 0.0000,  0.0000,  0.0000)
   4 Na    10.038818    7.814317    6.460511    ( 0.0000,  0.0000,  0.0000)
   5 Na     9.511052    6.698294    9.852713    ( 0.0000,  0.0000,  0.0000)

Unit cell:
           periodic     x           y           z      points  spacing
  1. axis:    no    16.000000    0.000000    0.000000    80     0.2000
  2. axis:    no     0.000000   16.000000    0.000000    80     0.2000
  3. axis:    no     0.000000    0.000000   16.000000    80     0.2000

  Lengths:  16.000000  16.000000  16.000000
  Angles:   90.000000  90.000000  90.000000

Effective grid spacing dv^(1/3) = 0.2000

                     log10-error:    total        iterations:
           time      wfs    density  energy       fermi  poisson
iter:   1  11:26:05  -1.54   +inf    -4.882028    0      1      
iter:   2  11:26:09  -2.38  -2.17    -4.882051    0      1      
iter:   3  11:26:13  -3.07  -2.31    -4.881977    0      1      
iter:   4  11:26:17  -3.76  -2.86    -4.881979    0      1      
iter:   5  11:26:22  -4.12  -3.06    -4.881982    0      1      
iter:   6  11:26:26  -4.44  -3.36    -4.881984    0      1      
iter:   7  11:26:30  -4.79  -3.53    -4.881985    0      1      
iter:   8  11:26:34  -4.96  -3.66    -4.881985    0      1      
iter:   9  11:26:39  -5.39  -4.12    -4.881985    0      1      
iter:  10  11:26:43  -5.74  -4.16    -4.881985    0      1      
iter:  11  11:26:47  -5.98  -4.33    -4.881985    0      1      
iter:  12  11:26:51  -6.29  -4.75    -4.881985    0      1      
iter:  13  11:26:56  -6.68  -4.93    -4.881985    0      1      
iter:  14  11:27:00  -7.08  -4.92    -4.881985    0      1      
iter:  15  11:27:04  -7.42  -4.85    -4.881985    0      1      

Converged after 15 iterations.

Dipole moment: (-0.093506, -0.103532, -0.030611) |e|*Ang

Energy contributions relative to reference atoms: (reference = -26511.662975)

Kinetic:         +8.996087
Potential:       -8.375911
External:        +0.000000
XC:              -5.500910
Entropy (-ST):   +0.000000
Local:           -0.001252
--------------------------
Free energy:     -4.881985
Extrapolated:    -4.881985

Fermi level: -2.41210

 Band  Eigenvalues  Occupancy
    0     -4.09387    2.00000
    1     -2.97717    2.00000
    2     -2.97221    2.00000
    3     -1.85199    0.00000
    4     -1.70276    0.00000
    5     -1.68730    0.00000
    6     -1.34563    0.00000
    7     -0.81592    0.00000

Gap: 1.120 eV
Transition (v -> c):
  (s=0, k=0, n=2, [0.00, 0.00, 0.00]) -> (s=0, k=0, n=3, [0.00, 0.00, 0.00])

Forces in eV/Ang:
  0 Na    0.00673    0.00773    0.00382
  1 Na    0.00210   -0.00395   -0.00602
  2 Na    0.00129   -0.00195   -0.00033
  3 Na   -0.00036   -0.00122   -0.00131
  4 Na   -0.00251   -0.00430    0.00364
  5 Na   -0.00342    0.00274   -0.00113

Timing:                                      incl.     excl.
-------------------------------------------------------------------
Density initialized from wave functions:     0.624     0.624   0.1% |
 Symmetrize density:                         0.000     0.000   0.0% |
Forces:                                      1.094     1.094   0.2% |
Hamiltonian:                                16.241     0.001   0.0% |
 Atomic:                                     1.285     0.006   0.0% |
  XC Correction:                             1.280     1.280   0.3% |
 Calculate atomic Hamiltonians:              0.058     0.058   0.0% |
 Communicate:                                0.000     0.000   0.0% |
 Hartree integrate/restrict:                 0.471     0.471   0.1% |
 Initialize Hamiltonian:                     0.000     0.000   0.0% |
 Poisson:                                    2.627     0.150   0.0% |
  Communicate bwd 0:                         0.318     0.318   0.1% |
  Communicate bwd 1:                         0.203     0.203   0.0% |
  Communicate fwd 0:                         0.276     0.276   0.1% |
  Communicate fwd 1:                         0.301     0.301   0.1% |
  fft:                                       0.378     0.378   0.1% |
  fft2:                                      1.001     1.001   0.2% |
 XC 3D grid:                                11.730    11.730   2.7% ||
 vbar:                                       0.069     0.069   0.0% |
LCAO initialization:                         0.268     0.023   0.0% |
 LCAO eigensolver:                           0.119     0.000   0.0% |
  Calculate projections:                     0.000     0.000   0.0% |
  DenseAtomicCorrection:                     0.000     0.000   0.0% |
  Distribute overlap matrix:                 0.000     0.000   0.0% |
  Orbital Layouts:                           0.000     0.000   0.0% |
  Potential matrix:                          0.118     0.118   0.0% |
 LCAO to grid:                               0.101     0.101   0.0% |
 Set positions (LCAO WFS):                   0.024     0.005   0.0% |
  Basic WFS set positions:                   0.000     0.000   0.0% |
  Basis functions set positions:             0.000     0.000   0.0% |
  P tci:                                     0.013     0.013   0.0% |
  ST tci:                                    0.004     0.004   0.0% |
  mktci:                                     0.002     0.002   0.0% |
Redistribute:                                0.002     0.002   0.0% |
SCF-cycle:                                 412.110     0.066   0.0% |
 Davidson:                                 120.115    59.906  13.7% |----|
  Apply hamiltonian:                        12.358    12.358   2.8% ||
  Subspace diag:                            14.849     0.012   0.0% |
   calc_h_matrix:                           13.004     0.594   0.1% |
    Apply hamiltonian:                      12.409    12.409   2.8% ||
   diagonalize:                              0.023     0.023   0.0% |
   rotate_psi:                               1.811     1.811   0.4% |
  calc. matrices:                           29.357     4.642   1.1% |
   Apply hamiltonian:                       24.715    24.715   5.6% |-|
  diagonalize:                               0.063     0.063   0.0% |
  rotate_psi:                                3.582     3.582   0.8% |
 Density:                                   14.262     0.003   0.0% |
  Atomic density matrices:                   0.089     0.089   0.0% |
  Mix:                                      13.313    13.313   3.0% ||
  Multipole moments:                         0.021     0.021   0.0% |
  Pseudo density:                            0.835     0.832   0.2% |
   Symmetrize density:                       0.002     0.002   0.0% |
 Hamiltonian:                              277.521     0.012   0.0% |
  Atomic:                                   22.239     0.093   0.0% |
   XC Correction:                           22.146    22.146   5.0% |-|
  Calculate atomic Hamiltonians:             0.978     0.978   0.2% |
  Communicate:                               0.001     0.001   0.0% |
  Hartree integrate/restrict:                7.959     7.959   1.8% ||
  Poisson:                                  44.066     2.294   0.5% |
   Communicate bwd 0:                        5.306     5.306   1.2% |
   Communicate bwd 1:                        3.398     3.398   0.8% |
   Communicate fwd 0:                        4.606     4.606   1.0% |
   Communicate fwd 1:                        5.123     5.123   1.2% |
   fft:                                      6.440     6.440   1.5% ||
   fft2:                                    16.899    16.899   3.9% |-|
  XC 3D grid:                              201.288   201.288  45.9% |-----------------|
  vbar:                                      0.977     0.977   0.2% |
 Orthonormalize:                             0.146     0.001   0.0% |
  calc_s_matrix:                             0.033     0.033   0.0% |
  inverse-cholesky:                          0.002     0.002   0.0% |
  projections:                               0.034     0.034   0.0% |
  rotate_psi_s:                              0.076     0.076   0.0% |
Set symmetry:                                0.001     0.001   0.0% |
Other:                                       8.449     8.449   1.9% ||
-------------------------------------------------------------------
Total:                                               438.790 100.0%

Memory usage: 1.19 GiB
Date: Tue Feb 18 11:27:05 2020
