
  ___ ___ ___ _ _ _  
 |   |   |_  | | | | 
 | | | | | . | | | | 
 |__ |  _|___|_____|  19.8.1
 |___|_|             

User:   hallborn@hebbe04-8
Date:   Thu Feb  6 23:12:57 2020
Arch:   x86_64
Pid:    10910
Python: 3.7.2
gpaw:   /apps/Hebbe7/software/MPI/intel/2019.1.144-GCC-8.2.0-2.31.1/impi/2018.4.274/GPAW/19.8.1-Python-3.7.2/lib/python3.7/site-packages/gpaw
_gpaw:  /apps/Hebbe7/software/MPI/intel/2019.1.144-GCC-8.2.0-2.31.1/impi/2018.4.274/GPAW/19.8.1-Python-3.7.2/bin/
        gpaw-python
ase:    /apps/Hebbe7/software/MPI/intel/2019.1.144-GCC-8.2.0-2.31.1/impi/2018.4.274/ASE/3.18.0-Python-3.7.2/lib/python3.7/site-packages/ase (version 3.18.0)
numpy:  /apps/Hebbe7/software/MPI/intel/2019.1.144-GCC-8.2.0-2.31.1/impi/2018.4.274/SciPy-bundle/2019.03/lib/python3.7/site-packages/numpy (version 1.16.2)
scipy:  /apps/Hebbe7/software/MPI/intel/2019.1.144-GCC-8.2.0-2.31.1/impi/2018.4.274/SciPy-bundle/2019.03/lib/python3.7/site-packages/scipy (version 1.2.1)
libxc:  4.3.4
units:  Angstrom and eV
cores:  1

Input parameters:
  mode: {ecut: 340.0,
         gammacentered: False,
         name: pw}

System changes: positions, numbers, cell, pbc, initial_charges, initial_magmoms 

Initialize ...

Na-setup:
  name: Sodium
  id: 74d681ec425db66acd6a232eb07f04e6
  Z: 11
  valence: 7
  core: 4
  charge: 0.0
  file: /apps/Common/Core/GPAW-setups/0.9.20000/Na.LDA.gz
  compensation charges: gauss, rc=0.37, lmax=2
  cutoffs: 2.17(filt), 2.59(core),
  valence states:
                energy  radius
    3s(1.00)    -2.819   1.201
    2p(6.00)   -28.826   1.217
    3p(0.00)    -0.774   1.217
    *s          24.392   1.201
    *d           0.000   1.238

  Using partial waves for Na as LCAO basis

Reference energy: -26392.251266

Spin-paired calculation

Occupation numbers:
  Fermi-Dirac: width=0.0000 eV

Convergence criteria:
  Maximum total energy change: 0.0005 eV / electron
  Maximum integral of absolute density change: 0.0001 electrons
  Maximum integral of absolute eigenstate change: 4e-08 eV^2
  Maximum number of iterations: 333

Symmetries present (total): 1

  ( 1  0  0)
  ( 0  1  0)
  ( 0  0  1)

1 k-point (Gamma)
1 k-point in the irreducible part of the Brillouin zone
       k-points in crystal coordinates                weights
   0:     0.00000000    0.00000000    0.00000000          1/1

Wave functions: Plane wave expansion
  Cutoff energy: 340.000 eV
  Number of coefficients: 31439 (reduced to 15720)
  Pulay-stress correction: 0.000000 eV/Ang^3 (de/decut=0.000000)
  Using FFTW library
  ScaLapack parameters: grid=1x1, blocksize=None
  Wavefunction extrapolation:
    Improved wavefunction reuse through dual PAW basis 

Eigensolver
   Davidson(niter=2, smin=None, normalize=True) 

Densities:
  Coarse grid: 56*56*56 grid
  Fine grid: 112*112*112 grid
  Total Charge: 0.000000 

Density mixing:
  Method: separate
  Backend: pulay
  Linear mixing parameter: 0.05
  Mixing with 5 old densities
  Damping of long wave oscillations: 50 

Hamiltonian:
  XC and Coulomb potentials evaluated on a 112*112*112 grid
  Using the LDA Exchange-Correlation functional
 

Memory estimate:
  Process memory now: 159.76 MiB
  Calculator: 125.77 MiB
    Density: 81.30 MiB
      Arrays: 34.84 MiB
      Localized functions: 33.07 MiB
      Mixer: 13.40 MiB
    Hamiltonian: 23.45 MiB
      Arrays: 22.78 MiB
      XC: 0.00 MiB
      Poisson: 0.00 MiB
      vbar: 0.67 MiB
    Wavefunctions: 21.02 MiB
      Arrays psit_nG: 7.20 MiB
      Eigensolver: 8.46 MiB
      Projections: 0.02 MiB
      Projectors: 1.68 MiB
      PW-descriptor: 3.66 MiB

Total number of cores used: 1

Number of atoms: 6
Number of atomic orbitals: 42
Number of bands in calculation: 30
Bands to converge: occupied states only
Number of valence electrons: 42

... initialized

Initializing position-dependent things.

Density initialized from atomic densities
Creating initial wave functions:
  30 bands from LCAO basis set

         .-------------------------------.  
        /|                               |  
       / |                               |  
      /  |                               |  
     /   |                               |  
    /    |                               |  
   /     |                               |  
  /      |                               |  
 *       |                               |  
 |       |        Na                     |  
 |       |                               |  
 |       |      Na                       |  
 |       |                               |  
 |       |        Na      Na             |  
 |       |                               |  
 |       |      Na      Na               |  
 |       .-------------------------------.  
 |      /                               /   
 |     /                               /    
 |    /                               /     
 |   /                               /      
 |  /                               /       
 | /                               /        
 |/                               /         
 *-------------------------------*          

Positions:
   0 Na     5.000000    5.000000    5.000000    ( 0.0000,  0.0000,  0.0000)
   1 Na     8.000000    5.000000    5.000000    ( 0.0000,  0.0000,  0.0000)
   2 Na     5.000000    8.000000    5.000000    ( 0.0000,  0.0000,  0.0000)
   3 Na     5.000000    5.000000    8.000000    ( 0.0000,  0.0000,  0.0000)
   4 Na     8.000000    8.000000    5.000000    ( 0.0000,  0.0000,  0.0000)
   5 Na     5.000000    8.000000    8.000000    ( 0.0000,  0.0000,  0.0000)

Unit cell:
           periodic     x           y           z      points  spacing
  1. axis:    no    13.000000    0.000000    0.000000    56     0.2321
  2. axis:    no     0.000000   13.000000    0.000000    56     0.2321
  3. axis:    no     0.000000    0.000000   13.000000    56     0.2321

  Lengths:  13.000000  13.000000  13.000000
  Angles:   90.000000  90.000000  90.000000

Effective grid spacing dv^(1/3) = 0.2321

                     log10-error:    total        iterations:
           time      wfs    density  energy       fermi  poisson
iter:   1  23:13:01  -0.22   +inf    -4.919436    0             
iter:   2  23:13:02  -1.14  -1.30    -4.911677    0             
iter:   3  23:13:04  -1.45  -1.32    -4.709204    0             
iter:   4  23:13:05  -1.98  -1.79    -4.702992    0             
iter:   5  23:13:07  -2.31  -1.79    -4.699885    0             
iter:   6  23:13:08  -2.54  -1.95    -4.700778    0             
iter:   7  23:13:10  -2.98  -2.36    -4.700981    0             
iter:   8  23:13:11  -3.36  -2.42    -4.700163    0             
iter:   9  23:13:13  -3.74  -2.61    -4.699659    0             
iter:  10  23:13:14  -4.05  -2.92    -4.699490    0             
iter:  11  23:13:15  -4.48  -3.48    -4.699498    0             
iter:  12  23:13:17  -4.80  -3.50    -4.699521    0             
iter:  13  23:13:18  -5.10  -3.36    -4.699500    0             
iter:  14  23:13:20  -5.47  -4.06    -4.699503    0             
iter:  15  23:13:21  -5.76  -4.12    -4.699504    0             
iter:  16  23:13:23  -6.03  -4.08    -4.699504    0             
iter:  17  23:13:24  -6.30  -4.07    -4.699504    0             
iter:  18  23:13:26  -6.48  -4.09    -4.699504    0             
iter:  19  23:13:27  -6.71  -4.10    -4.699504    0             
iter:  20  23:13:29  -6.92  -4.07    -4.699504    0             
iter:  21  23:13:30  -7.20  -4.33    -4.699503    0             
iter:  22  23:13:32  -7.49  -4.46    -4.699503    0             

Converged after 22 iterations.

Dipole moment: (0.062745, -0.000000, 0.062745) |e|*Ang

Energy contributions relative to reference atoms: (reference = -26392.251266)

Kinetic:         +8.521758
Potential:       -6.410456
External:        +0.000000
XC:              -6.606128
Entropy (-ST):   +0.000000
Local:           -0.204677
--------------------------
Free energy:     -4.699503
Extrapolated:    -4.699503

Fermi level: -2.40786

 Band  Eigenvalues  Occupancy
    0    -28.01830    2.00000
    1    -27.98908    2.00000
    2    -27.98158    2.00000
    3    -27.97123    2.00000
    4    -27.96184    2.00000
    5    -27.94048    2.00000
    6    -27.84228    2.00000
    7    -27.84222    2.00000
    8    -27.80828    2.00000
    9    -27.80562    2.00000
   10    -27.80079    2.00000
   11    -27.79840    2.00000
   12    -27.79530    2.00000
   13    -27.79452    2.00000
   14    -27.79097    2.00000
   15    -27.79030    2.00000
   16    -27.76267    2.00000
   17    -27.76253    2.00000
   18     -4.23103    2.00000
   19     -2.82462    2.00000
   20     -2.53755    2.00000
   21     -2.27816    0.00000
   22     -1.27226    0.00000
   23     -1.20938    0.00000
   24     -1.01800    0.00000
   25     -1.00037    0.00000
   26     -0.70699    0.00000
   27     -0.49125    0.00000
   28     -0.00753    0.00000
   29      0.05453    0.00000

Gap: 0.259 eV
Transition (v -> c):
  (s=0, k=0, n=20, [0.00, 0.00, 0.00]) -> (s=0, k=0, n=21, [0.00, 0.00, 0.00])
Writing to Na6.gpw (mode='')

Timing:                              incl.     excl.
-----------------------------------------------------------
Hamiltonian:                         0.539     0.006   0.0% |
 Atomic:                             0.097     0.001   0.0% |
  XC Correction:                     0.096     0.096   0.3% |
 Calculate atomic Hamiltonians:      0.157     0.157   0.4% |
 Communicate:                        0.000     0.000   0.0% |
 Initialize Hamiltonian:             0.000     0.000   0.0% |
 Poisson:                            0.012     0.012   0.0% |
 XC 3D grid:                         0.267     0.267   0.8% |
LCAO initialization:                 0.315     0.039   0.1% |
 LCAO eigensolver:                   0.041     0.001   0.0% |
  Calculate projections:             0.000     0.000   0.0% |
  DenseAtomicCorrection:             0.000     0.000   0.0% |
  Distribute overlap matrix:         0.000     0.000   0.0% |
  Orbital Layouts:                   0.001     0.001   0.0% |
  Potential matrix:                  0.039     0.039   0.1% |
 LCAO to grid:                       0.197     0.197   0.6% |
 Set positions (LCAO WFS):           0.037     0.006   0.0% |
  Basic WFS set positions:           0.000     0.000   0.0% |
  Basis functions set positions:     0.000     0.000   0.0% |
  P tci:                             0.020     0.020   0.1% |
  ST tci:                            0.005     0.005   0.0% |
  mktci:                             0.006     0.006   0.0% |
PWDescriptor:                        0.018     0.018   0.1% |
SCF-cycle:                          31.818     0.016   0.0% |
 Davidson:                          14.534     2.163   6.2% |-|
  Apply H:                           2.672     2.571   7.4% |--|
   HMM T:                            0.101     0.101   0.3% |
  Subspace diag:                     3.068     0.004   0.0% |
   calc_h_matrix:                    2.769     0.090   0.3% |
    Apply H:                         2.679     2.577   7.4% |--|
     HMM T:                          0.101     0.101   0.3% |
   diagonalize:                      0.010     0.010   0.0% |
   rotate_psi:                       0.286     0.286   0.8% |
  calc. matrices:                    6.011     0.659   1.9% ||
   Apply H:                          5.352     5.149  14.7% |-----|
    HMM T:                           0.204     0.204   0.6% |
  diagonalize:                       0.045     0.045   0.1% |
  rotate_psi:                        0.575     0.575   1.6% ||
 Density:                            5.924     0.001   0.0% |
  Atomic density matrices:           0.026     0.026   0.1% |
  Mix:                               4.656     4.656  13.3% |----|
  Multipole moments:                 0.006     0.006   0.0% |
  Pseudo density:                    1.234     1.233   3.5% ||
   Symmetrize density:               0.001     0.001   0.0% |
 Hamiltonian:                       11.309     0.108   0.3% |
  Atomic:                            2.029     0.028   0.1% |
   XC Correction:                    2.001     2.001   5.7% |-|
  Calculate atomic Hamiltonians:     3.472     3.472   9.9% |---|
  Communicate:                       0.000     0.000   0.0% |
  Poisson:                           0.188     0.188   0.5% |
  XC 3D grid:                        5.511     5.511  15.8% |-----|
 Orthonormalize:                     0.035     0.000   0.0% |
  calc_s_matrix:                     0.004     0.004   0.0% |
  inverse-cholesky:                  0.001     0.001   0.0% |
  projections:                       0.023     0.023   0.1% |
  rotate_psi_s:                      0.006     0.006   0.0% |
Set symmetry:                        0.001     0.001   0.0% |
Other:                               2.223     2.223   6.4% |--|
-----------------------------------------------------------
Total:                                        34.915 100.0%

Memory usage: 325.94 MiB
Date: Thu Feb  6 23:13:32 2020
