
  ___ ___ ___ _ _ _  
 |   |   |_  | | | | 
 | | | | | . | | | | 
 |__ |  _|___|_____|  19.8.1
 |___|_|             

User:   hallborn@hebbe15-8
Date:   Thu Feb  6 23:26:25 2020
Arch:   x86_64
Pid:    19357
Python: 3.7.2
gpaw:   /apps/Hebbe7/software/MPI/intel/2019.1.144-GCC-8.2.0-2.31.1/impi/2018.4.274/GPAW/19.8.1-Python-3.7.2/lib/python3.7/site-packages/gpaw
_gpaw:  /apps/Hebbe7/software/MPI/intel/2019.1.144-GCC-8.2.0-2.31.1/impi/2018.4.274/GPAW/19.8.1-Python-3.7.2/bin/
        gpaw-python
ase:    /apps/Hebbe7/software/MPI/intel/2019.1.144-GCC-8.2.0-2.31.1/impi/2018.4.274/ASE/3.18.0-Python-3.7.2/lib/python3.7/site-packages/ase (version 3.18.0)
numpy:  /apps/Hebbe7/software/MPI/intel/2019.1.144-GCC-8.2.0-2.31.1/impi/2018.4.274/SciPy-bundle/2019.03/lib/python3.7/site-packages/numpy (version 1.16.2)
scipy:  /apps/Hebbe7/software/MPI/intel/2019.1.144-GCC-8.2.0-2.31.1/impi/2018.4.274/SciPy-bundle/2019.03/lib/python3.7/site-packages/scipy (version 1.2.1)
libxc:  4.3.4
units:  Angstrom and eV
cores:  1

Input parameters:
  mode: lcao

System changes: positions, numbers, cell, pbc, initial_charges, initial_magmoms 

Initialize ...

Na-setup:
  name: Sodium
  id: 74d681ec425db66acd6a232eb07f04e6
  Z: 11
  valence: 7
  core: 4
  charge: 0.0
  file: /apps/Common/Core/GPAW-setups/0.9.20000/Na.LDA.gz
  compensation charges: gauss, rc=0.37, lmax=2
  cutoffs: 2.17(filt), 2.59(core),
  valence states:
                energy  radius
    3s(1.00)    -2.819   1.201
    2p(6.00)   -28.826   1.217
    3p(0.00)    -0.774   1.217
    *s          24.392   1.201
    *d           0.000   1.238

  Using partial waves for Na as LCAO basis

Reference energy: -26392.251266

Spin-paired calculation

Occupation numbers:
  Fermi-Dirac: width=0.0000 eV

Convergence criteria:
  Maximum total energy change: 0.0005 eV / electron
  Maximum integral of absolute density change: 0.0001 electrons
  Maximum integral of absolute eigenstate change: 4e-08 eV^2
  Maximum number of iterations: 333

Symmetries present (total): 1

  ( 1  0  0)
  ( 0  1  0)
  ( 0  0  1)

1 k-point (Gamma)
1 k-point in the irreducible part of the Brillouin zone
       k-points in crystal coordinates                weights
   0:     0.00000000    0.00000000    0.00000000          1/1

Wave functions: LCAO
  Diagonalizer: Serial LAPACK
  Atomic Correction: dense with blas
  Datatype: float
 

Eigensolver
   LCAO using direct dense diagonalizer 

Densities:
  Coarse grid: 64*64*64 grid
  Fine grid: 128*128*128 grid
  Total Charge: 0.000000 

Density mixing:
  Method: separate
  Backend: pulay
  Linear mixing parameter: 0.25
  Mixing with 3 old densities
  No damping of long wave oscillations 

Hamiltonian:
  XC and Coulomb potentials evaluated on a 128*128*128 grid
  Using the LDA Exchange-Correlation functional
  Interpolation: tri-quintic (5. degree polynomial)
  Poisson solver: FastPoissonSolver using
    6*3+1=19 point O(h^6) finite-difference Laplacian stencil;
    FFT axes: [];
    FST axes: [0, 1, 2].
 

Memory estimate:
  Process memory now: 280.97 MiB
  Calculator: 134.79 MiB
    Density: 87.56 MiB
      Arrays: 50.70 MiB
      Localized functions: 25.42 MiB
      Mixer: 11.45 MiB
    Hamiltonian: 35.03 MiB
      Arrays: 33.16 MiB
      XC: 0.00 MiB
      Poisson: 0.00 MiB
      vbar: 1.87 MiB
    Wavefunctions: 12.19 MiB
      C [qnM]: 0.01 MiB
      S, T [2 x qmm]: 0.03 MiB
      P [aqMi]: 0.00 MiB
      BasisFunctions: 12.15 MiB
      Eigensolver: 0.00 MiB

Total number of cores used: 1

Number of atoms: 6
Number of atomic orbitals: 42
Number of bands in calculation: 30
Bands to converge: occupied states only
Number of valence electrons: 42

... initialized

Initializing position-dependent things.

Density initialized from atomic densities
         .-------------------------------.  
        /|                               |  
       / |                               |  
      /  |                               |  
     /   |                               |  
    /    |                               |  
   /     |                               |  
  /      |                               |  
 *       |                               |  
 |       |        Na                     |  
 |       |                               |  
 |       |      Na                       |  
 |       |                               |  
 |       |        Na      Na             |  
 |       |                               |  
 |       |      Na      Na               |  
 |       .-------------------------------.  
 |      /                               /   
 |     /                               /    
 |    /                               /     
 |   /                               /      
 |  /                               /       
 | /                               /        
 |/                               /         
 *-------------------------------*          

Positions:
   0 Na     5.000000    5.000000    5.000000    ( 0.0000,  0.0000,  0.0000)
   1 Na     8.000000    5.000000    5.000000    ( 0.0000,  0.0000,  0.0000)
   2 Na     5.000000    8.000000    5.000000    ( 0.0000,  0.0000,  0.0000)
   3 Na     5.000000    5.000000    8.000000    ( 0.0000,  0.0000,  0.0000)
   4 Na     8.000000    8.000000    5.000000    ( 0.0000,  0.0000,  0.0000)
   5 Na     5.000000    8.000000    8.000000    ( 0.0000,  0.0000,  0.0000)

Unit cell:
           periodic     x           y           z      points  spacing
  1. axis:    no    13.000000    0.000000    0.000000    64     0.2031
  2. axis:    no     0.000000   13.000000    0.000000    64     0.2031
  3. axis:    no     0.000000    0.000000   13.000000    64     0.2031

  Lengths:  13.000000  13.000000  13.000000
  Angles:   90.000000  90.000000  90.000000

Effective grid spacing dv^(1/3) = 0.2031

                     log10-error:    total        iterations:
           time      wfs    density  energy       fermi  poisson
iter:   1  23:26:29          +inf    -3.700719    0      1      
iter:   2  23:26:31         -1.32    -3.487574    0      1      
iter:   3  23:26:32         -1.52    -3.380811    0      1      
iter:   4  23:26:33         -2.13    -3.372712    0      1      
iter:   5  23:26:34         -2.74    -3.372338    0      1      
iter:   6  23:26:35         -3.07    -3.372312    0      1      
iter:   7  23:26:36         -3.22    -3.372283    0      1      
iter:   8  23:26:37         -3.89    -3.372281    0      1      
iter:   9  23:26:38         -4.12    -3.372280    0      1      

Converged after 9 iterations.

Dipole moment: (0.056828, 0.000000, 0.056828) |e|*Ang

Energy contributions relative to reference atoms: (reference = -26392.251266)

Kinetic:        +27.134030
Potential:      -21.662419
External:        +0.000000
XC:              -8.875055
Entropy (-ST):   +0.000000
Local:           +0.031164
--------------------------
Free energy:     -3.372280
Extrapolated:    -3.372280

Fermi level: -2.30875

 Band  Eigenvalues  Occupancy
    0    -27.91223    2.00000
    1    -27.87996    2.00000
    2    -27.87157    2.00000
    3    -27.86496    2.00000
    4    -27.85529    2.00000
    5    -27.83325    2.00000
    6    -27.71393    2.00000
    7    -27.71390    2.00000
    8    -27.67754    2.00000
    9    -27.67522    2.00000
   10    -27.66929    2.00000
   11    -27.66708    2.00000
   12    -27.65661    2.00000
   13    -27.65556    2.00000
   14    -27.65268    2.00000
   15    -27.65197    2.00000
   16    -27.63256    2.00000
   17    -27.63231    2.00000
   18     -4.19156    2.00000
   19     -2.75310    2.00000
   20     -2.45857    2.00000
   21     -2.15894    0.00000
   22     -1.01877    0.00000
   23     -0.77657    0.00000
   24     -0.51221    0.00000
   25     -0.48513    0.00000
   26     -0.35076    0.00000
   27      0.26052    0.00000
   28      0.97402    0.00000
   29      0.97899    0.00000

Gap: 0.300 eV
Transition (v -> c):
  (s=0, k=0, n=20, [0.00, 0.00, 0.00]) -> (s=0, k=0, n=21, [0.00, 0.00, 0.00])
Writing to Na6.gpw (mode='')

Timing:                              incl.     excl.
-----------------------------------------------------------
Basic WFS set positions:             0.001     0.001   0.0% |
Basis functions set positions:       0.031     0.031   0.2% |
LCAO WFS Initialize:                 0.966     0.134   1.0% |
 Hamiltonian:                        0.832     0.000   0.0% |
  Atomic:                            0.094     0.001   0.0% |
   XC Correction:                    0.092     0.092   0.7% |
  Calculate atomic Hamiltonians:     0.010     0.010   0.1% |
  Communicate:                       0.000     0.000   0.0% |
  Hartree integrate/restrict:        0.056     0.056   0.4% |
  Initialize Hamiltonian:            0.000     0.000   0.0% |
  Poisson:                           0.315     0.025   0.2% |
   Communicate bwd 0:                0.038     0.038   0.3% |
   Communicate bwd 1:                0.023     0.023   0.2% |
   Communicate fwd 0:                0.032     0.032   0.2% |
   Communicate fwd 1:                0.037     0.037   0.3% |
   fft:                              0.045     0.045   0.3% |
   fft2:                             0.115     0.115   0.9% |
  XC 3D grid:                        0.343     0.343   2.6% ||
  vbar:                              0.014     0.014   0.1% |
P tci:                               0.020     0.020   0.1% |
SCF-cycle:                           8.458     0.004   0.0% |
 Density:                            1.451     0.000   0.0% |
  Atomic density matrices:           0.009     0.009   0.1% |
  Mix:                               0.901     0.901   6.7% |--|
  Multipole moments:                 0.002     0.002   0.0% |
  Normalize:                         0.005     0.005   0.0% |
  Pseudo density:                    0.534     0.014   0.1% |
   Calculate density matrix:         0.001     0.001   0.0% |
   Construct density:                0.518     0.518   3.9% |-|
   Symmetrize density:               0.000     0.000   0.0% |
 Hamiltonian:                        6.485     0.002   0.0% |
  Atomic:                            0.750     0.010   0.1% |
   XC Correction:                    0.740     0.740   5.5% |-|
  Calculate atomic Hamiltonians:     0.081     0.081   0.6% |
  Communicate:                       0.000     0.000   0.0% |
  Hartree integrate/restrict:        0.459     0.459   3.4% ||
  Poisson:                           2.423     0.163   1.2% |
   Communicate bwd 0:                0.291     0.291   2.2% ||
   Communicate bwd 1:                0.177     0.177   1.3% ||
   Communicate fwd 0:                0.251     0.251   1.9% ||
   Communicate fwd 1:                0.288     0.288   2.2% ||
   fft:                              0.366     0.366   2.7% ||
   fft2:                             0.887     0.887   6.6% |--|
  XC 3D grid:                        2.708     2.708  20.3% |-------|
  vbar:                              0.062     0.062   0.5% |
 LCAO eigensolver:                   0.517     0.002   0.0% |
  Calculate projections:             0.001     0.001   0.0% |
  DenseAtomicCorrection:             0.004     0.004   0.0% |
  Distribute overlap matrix:         0.000     0.000   0.0% |
  Orbital Layouts:                   0.007     0.007   0.0% |
  Potential matrix:                  0.504     0.504   3.8% |-|
ST tci:                              0.005     0.005   0.0% |
Set symmetry:                        0.001     0.001   0.0% |
TCI: Evaluate splines:               0.048     0.048   0.4% |
mktci:                               0.002     0.002   0.0% |
Other:                               3.829     3.829  28.7% |----------|
-----------------------------------------------------------
Total:                                        13.360 100.0%

Memory usage: 367.73 MiB
Date: Thu Feb  6 23:26:38 2020
