6
Lattice="16.0 0.0 0.0 0.0 16.0 0.0 0.0 0.0 16.0" Properties=species:S:1:pos:R:3:forces:R:3 energy=-4.8898661947484685 dipole="0.0017172071569601245 0.1292817044438208 0.02457927563974981" pbc="F F F"
Na       7.26911689       8.07395282       5.02228688      -0.00055344       0.00045575      -0.00109778
Na      10.44071409       7.24320146       9.67925814       0.00626502      -0.00062130       0.00505475
Na       8.09401653       8.79318022       8.08569719      -0.00952161       0.01009436      -0.00694312
Na       5.09750135       7.57972726       7.74449080      -0.00310239      -0.00010580      -0.00028192
Na       7.04158801       7.10439306      10.64302459       0.00138575      -0.00719045       0.00359419
Na      10.58343346       7.90577550       6.21090033       0.00328155      -0.00526574       0.00054134
