6
Lattice="16.0 0.0 0.0 0.0 16.0 0.0 0.0 0.0 16.0" Properties=species:S:1:pos:R:3:forces:R:3 energy=-4.93375519751721 dipole="0.003352696646747554 -0.0041967702065987 -0.004668818410039738" pbc="F F F"
Na      11.58710742       5.46052708       9.10529589       0.00235535      -0.00196454       0.00121239
Na       7.28331216       8.08914177       4.88074673      -0.00289871       0.00208285      -0.00030148
Na       9.48832186       6.71710373       6.90110521       0.00190593      -0.00318048      -0.00210215
Na       7.23386515       9.92822229      11.20473394      -0.00130441       0.00167460       0.00424836
Na       9.45346774       7.66553899      10.30072669      -0.00240300       0.00534274      -0.00319841
Na       7.14372217       9.10430326       8.01803600       0.00218645      -0.00219027      -0.00035079
