8
Lattice="16.0 0.0 0.0 0.0 16.0 0.0 0.0 0.0 16.0" Properties=species:S:1:pos:R:3:forces:R:3 unique_id="1 5 8 0 3 5 d 6 7 4 3 3 8 9 9 3 f f e 9 5 2 a 5 d 1 b 6 6 f 8 7" confid=14 relax_id=34 energy=-7.28099726497081 dipole="0.007811763548124432 8.97821210724765e-05 -0.00033549025013613644" pbc="F F F"
Na       6.23429269       6.23324508       8.95756224       0.00321711       0.00480191      -0.00292753 
Na       5.66567578       8.46340406       6.25069808       0.00568286      -0.00106911       0.00391015 
Na       6.77537737       9.62167016       9.30207639      -0.00887506      -0.00156807      -0.00008939 
Na       8.46652308       6.45009380       6.33802575      -0.00803131      -0.00423836      -0.00262351 
Na       8.52492938      10.01816417       6.21251903       0.00905005       0.00496018      -0.00091192 
Na       9.92495393      10.45984577       9.33060658      -0.00330438      -0.00504388      -0.00412808 
Na       9.26550496       7.10322673       9.76007238       0.01028427       0.00220642       0.00228866 
Na      11.21438703       8.03583696       7.07093565      -0.00617009       0.00118678       0.00244390 
