
  ___ ___ ___ _ _ _  
 |   |   |_  | | | | 
 | | | | | . | | | | 
 |__ |  _|___|_____|  19.8.1
 |___|_|             

User:   hallborn@hebbe2
Date:   Thu Feb  6 19:01:21 2020
Arch:   x86_64
Pid:    31063
Python: 3.7.2
gpaw:   /apps/Hebbe7/software/MPI/intel/2019.1.144-GCC-8.2.0-2.31.1/impi/2018.4.274/GPAW/19.8.1-Python-3.7.2/lib/python3.7/site-packages/gpaw
_gpaw:  /apps/Hebbe7/software/MPI/intel/2019.1.144-GCC-8.2.0-2.31.1/impi/2018.4.274/GPAW/19.8.1-Python-3.7.2/lib/python3.7/site-packages/
        _gpaw.cpython-37m-x86_64-linux-gnu.so
ase:    /apps/Hebbe7/software/MPI/intel/2019.1.144-GCC-8.2.0-2.31.1/impi/2018.4.274/ASE/3.18.0-Python-3.7.2/lib/python3.7/site-packages/ase (version 3.18.0)
numpy:  /apps/Hebbe7/software/MPI/intel/2019.1.144-GCC-8.2.0-2.31.1/impi/2018.4.274/SciPy-bundle/2019.03/lib/python3.7/site-packages/numpy (version 1.16.2)
scipy:  /apps/Hebbe7/software/MPI/intel/2019.1.144-GCC-8.2.0-2.31.1/impi/2018.4.274/SciPy-bundle/2019.03/lib/python3.7/site-packages/scipy (version 1.2.1)
libxc:  4.3.4
units:  Angstrom and eV
cores:  1

Input parameters:
  mode: {ecut: 340.0,
         gammacentered: False,
         name: pw}

System changes: positions, numbers, cell, pbc, initial_charges, initial_magmoms 

Initialize ...

Na-setup:
  name: Sodium
  id: 74d681ec425db66acd6a232eb07f04e6
  Z: 11
  valence: 7
  core: 4
  charge: 0.0
  file: /apps/Common/Core/GPAW-setups/0.9.20000/Na.LDA.gz
  compensation charges: gauss, rc=0.37, lmax=2
  cutoffs: 2.17(filt), 2.59(core),
  valence states:
                energy  radius
    3s(1.00)    -2.819   1.201
    2p(6.00)   -28.826   1.217
    3p(0.00)    -0.774   1.217
    *s          24.392   1.201
    *d           0.000   1.238

  Using partial waves for Na as LCAO basis

Reference energy: -8797.417089

Spin-paired calculation

Occupation numbers:
  Fermi-Dirac: width=0.0000 eV

Convergence criteria:
  Maximum total energy change: 0.0005 eV / electron
  Maximum integral of absolute density change: 0.0001 electrons
  Maximum integral of absolute eigenstate change: 4e-08 eV^2
  Maximum number of iterations: 333

Symmetries present (total): 1

  ( 1  0  0)
  ( 0  1  0)
  ( 0  0  1)

1 k-point (Gamma)
1 k-point in the irreducible part of the Brillouin zone
       k-points in crystal coordinates                weights
   0:     0.00000000    0.00000000    0.00000000          1/1

Wave functions: Plane wave expansion
  Cutoff energy: 340.000 eV
  Number of coefficients: 17041 (reduced to 8521)
  Pulay-stress correction: 0.000000 eV/Ang^3 (de/decut=0.000000)
  Using FFTW library
  ScaLapack parameters: grid=1x1, blocksize=None
  Wavefunction extrapolation:
    Improved wavefunction reuse through dual PAW basis 

Eigensolver
   Davidson(niter=2, smin=None, normalize=True) 

Densities:
  Coarse grid: 54*45*45 grid
  Fine grid: 108*90*90 grid
  Total Charge: 0.000000 

Density mixing:
  Method: separate
  Backend: pulay
  Linear mixing parameter: 0.05
  Mixing with 5 old densities
  Damping of long wave oscillations: 50 

Hamiltonian:
  XC and Coulomb potentials evaluated on a 108*90*90 grid
  Using the LDA Exchange-Correlation functional
 

Memory estimate:
  Process memory now: 111.04 MiB
  Calculator: 69.85 MiB
    Density: 48.10 MiB
      Arrays: 21.69 MiB
      Localized functions: 18.07 MiB
      Mixer: 8.34 MiB
    Hamiltonian: 14.55 MiB
      Arrays: 14.18 MiB
      XC: 0.00 MiB
      Poisson: 0.00 MiB
      vbar: 0.37 MiB
    Wavefunctions: 7.20 MiB
      Arrays psit_nG: 1.69 MiB
      Eigensolver: 2.35 MiB
      Projections: 0.00 MiB
      Projectors: 0.91 MiB
      PW-descriptor: 2.24 MiB

Total number of cores used: 1

Number of atoms: 2
Number of atomic orbitals: 14
Number of bands in calculation: 13
Bands to converge: occupied states only
Number of valence electrons: 14

... initialized

Initializing position-dependent things.

Density initialized from atomic densities
Creating initial wave functions:
  13 bands from LCAO basis set

       .----------------------------.  
      /|                            |  
     / |                            |  
    /  |                            |  
   /   |                            |  
  /    |                            |  
 *     |                            |  
 |     |                            |  
 |     |                            |  
 |     |        Na   Na             |  
 |     |                            |  
 |     |                            |  
 |     .----------------------------.  
 |    /                            /   
 |   /                            /    
 |  /                            /     
 | /                            /      
 |/                            /       
 *----------------------------*        

Positions:
   0 Na     5.000000    5.000000    5.000000    ( 0.0000,  0.0000,  0.0000)
   1 Na     7.000000    5.000000    5.000000    ( 0.0000,  0.0000,  0.0000)

Unit cell:
           periodic     x           y           z      points  spacing
  1. axis:    no    12.000000    0.000000    0.000000    54     0.2222
  2. axis:    no     0.000000   10.000000    0.000000    45     0.2222
  3. axis:    no     0.000000    0.000000   10.000000    45     0.2222

  Lengths:  12.000000  10.000000  10.000000
  Angles:   90.000000  90.000000  90.000000

Effective grid spacing dv^(1/3) = 0.2222

                     log10-error:    total        iterations:
           time      wfs    density  energy       fermi  poisson
iter:   1  19:01:23  +0.12   +inf    -0.268435    0             
iter:   2  19:01:24  -1.10  -1.44    -0.292592    0             
iter:   3  19:01:25  -1.51  -1.44    -0.322726    0             
iter:   4  19:01:25  -1.79  -1.28    -0.278121    0             
iter:   5  19:01:26  -2.24  -2.00    -0.279629    0             
iter:   6  19:01:26  -2.67  -2.14    -0.280037    0             
iter:   7  19:01:27  -2.87  -2.13    -0.281475    0             
iter:   8  19:01:27  -3.25  -2.94    -0.281609    0             
iter:   9  19:01:28  -3.57  -2.92    -0.281695    0             
iter:  10  19:01:28  -3.94  -2.78    -0.281666    0             
iter:  11  19:01:29  -4.28  -3.04    -0.281679    0             
iter:  12  19:01:29  -4.30  -3.11    -0.281759    0             
iter:  13  19:01:30  -4.80  -2.99    -0.281698    0             
iter:  14  19:01:30  -4.88  -3.18    -0.281664    0             
iter:  15  19:01:31  -5.57  -3.66    -0.281662    0             
iter:  16  19:01:31  -5.85  -3.90    -0.281661    0             
iter:  17  19:01:32  -6.22  -4.06    -0.281660    0             
iter:  18  19:01:32  -6.43  -4.12    -0.281660    0             
iter:  19  19:01:33  -6.59  -4.29    -0.281659    0             
iter:  20  19:01:33  -7.02  -4.48    -0.281659    0             
iter:  21  19:01:34  -7.28  -4.52    -0.281659    0             
iter:  22  19:01:34  -7.37  -4.53    -0.281659    0             
iter:  23  19:01:35  -7.66  -4.61    -0.281659    0             

Converged after 23 iterations.

Dipole moment: (0.000000, 0.000000, 0.000000) |e|*Ang

Energy contributions relative to reference atoms: (reference = -8797.417089)

Kinetic:         +6.507104
Potential:       -4.503720
External:        +0.000000
XC:              -2.206512
Entropy (-ST):   +0.000000
Local:           -0.078531
--------------------------
Free energy:     -0.281659
Extrapolated:    -0.281659

Fermi level: -2.39082

 Band  Eigenvalues  Occupancy
    0    -29.77114    2.00000
    1    -29.01638    2.00000
    2    -29.01638    2.00000
    3    -28.78887    2.00000
    4    -28.78887    2.00000
    5    -28.46361    2.00000
    6     -3.36857    2.00000
    7     -1.41308    0.00000
    8     -1.00255    0.00000
    9     -1.00255    0.00000
   10     -0.40794    0.00000
   11      0.14908    0.00000
   12      0.80596    0.00000

Gap: 1.955 eV
Transition (v -> c):
  (s=0, k=0, n=6, [0.00, 0.00, 0.00]) -> (s=0, k=0, n=7, [0.00, 0.00, 0.00])
Writing to Na6.gpw (mode='')

Timing:                              incl.     excl.
-----------------------------------------------------------
Hamiltonian:                         0.298     0.003   0.0% |
 Atomic:                             0.040     0.001   0.0% |
  XC Correction:                     0.039     0.039   0.3% |
 Calculate atomic Hamiltonians:      0.012     0.012   0.1% |
 Communicate:                        0.000     0.000   0.0% |
 Initialize Hamiltonian:             0.000     0.000   0.0% |
 Poisson:                            0.005     0.005   0.0% |
 XC 3D grid:                         0.237     0.237   1.7% ||
LCAO initialization:                 0.103     0.050   0.4% |
 LCAO eigensolver:                   0.011     0.000   0.0% |
  Calculate projections:             0.000     0.000   0.0% |
  DenseAtomicCorrection:             0.000     0.000   0.0% |
  Distribute overlap matrix:         0.000     0.000   0.0% |
  Orbital Layouts:                   0.001     0.001   0.0% |
  Potential matrix:                  0.009     0.009   0.1% |
 LCAO to grid:                       0.035     0.035   0.3% |
 Set positions (LCAO WFS):           0.008     0.001   0.0% |
  Basic WFS set positions:           0.000     0.000   0.0% |
  Basis functions set positions:     0.000     0.000   0.0% |
  P tci:                             0.003     0.003   0.0% |
  ST tci:                            0.002     0.002   0.0% |
  mktci:                             0.002     0.002   0.0% |
PWDescriptor:                        0.044     0.044   0.3% |
SCF-cycle:                          11.712     0.011   0.1% |
 Davidson:                           3.747     0.261   1.9% ||
  Apply H:                           0.785     0.772   5.7% |-|
   HMM T:                            0.013     0.013   0.1% |
  Subspace diag:                     0.843     0.003   0.0% |
   calc_h_matrix:                    0.803     0.018   0.1% |
    Apply H:                         0.785     0.767   5.6% |-|
     HMM T:                          0.018     0.018   0.1% |
   diagonalize:                      0.017     0.017   0.1% |
   rotate_psi:                       0.020     0.020   0.1% |
  calc. matrices:                    1.666     0.110   0.8% |
   Apply H:                          1.556     1.528  11.2% |---|
    HMM T:                           0.028     0.028   0.2% |
  diagonalize:                       0.143     0.143   1.0% |
  rotate_psi:                        0.049     0.049   0.4% |
 Density:                            1.373     0.000   0.0% |
  Atomic density matrices:           0.013     0.013   0.1% |
  Mix:                               0.961     0.961   7.0% |--|
  Multipole moments:                 0.004     0.004   0.0% |
  Pseudo density:                    0.395     0.394   2.9% ||
   Symmetrize density:               0.000     0.000   0.0% |
 Hamiltonian:                        6.577     0.059   0.4% |
  Atomic:                            0.883     0.016   0.1% |
   XC Correction:                    0.867     0.867   6.3% |--|
  Calculate atomic Hamiltonians:     0.307     0.307   2.2% ||
  Communicate:                       0.000     0.000   0.0% |
  Poisson:                           0.090     0.090   0.7% |
  XC 3D grid:                        5.238     5.238  38.4% |--------------|
 Orthonormalize:                     0.005     0.000   0.0% |
  calc_s_matrix:                     0.001     0.001   0.0% |
  inverse-cholesky:                  0.001     0.001   0.0% |
  projections:                       0.003     0.003   0.0% |
  rotate_psi_s:                      0.000     0.000   0.0% |
Set symmetry:                        0.001     0.001   0.0% |
Other:                               1.496     1.496  11.0% |---|
-----------------------------------------------------------
Total:                                        13.655 100.0%

Date: Thu Feb  6 19:01:35 2020
